V -t * -v 1.0a5 -a 0
A -t * -n 1 -p 0 -o 0x7fffffff -c 30 -a 1
A -t * -h 1 -m 1073741823 -s 0
c -t * -i 1 -n Blue
c -t * -i 2 -n Red
n -t * -a 4 -s 4 -S UP -v circle -c black -i black
n -t * -a 0 -s 0 -S UP -v circle -c black -i black
n -t * -a 5 -s 5 -S UP -v circle -c black -i black
n -t * -a 1 -s 1 -S UP -v circle -c black -i black
n -t * -a 2 -s 2 -S UP -v circle -c black -i black
n -t * -a 3 -s 3 -S UP -v circle -c black -i black
l -t * -s 3 -d 4 -S UP -r 1000000 -D 0.01 -c black
l -t * -s 3 -d 5 -S UP -r 1000000 -D 0.01 -c black
l -t * -s 0 -d 2 -S UP -r 1000000 -D 0.01 -c black -o right-down
l -t * -s 1 -d 2 -S UP -r 1000000 -D 0.01 -c black -o right-up
l -t * -s 2 -d 3 -S UP -r 3000000 -D 0.01 -c black -o right
+ -t 0.1 -s 1 -d 2 -p cbr -e 1000 -c 2 -i 0 -a 2 -x {1.0 5.0 0 ------- null}
- -t 0.1 -s 1 -d 2 -p cbr -e 1000 -c 2 -i 0 -a 2 -x {1.0 5.0 0 ------- null}
h -t 0.1 -s 1 -d 2 -p cbr -e 1000 -c 2 -i 0 -a 2 -x {1.0 5.0 -1 ------- null}
+ -t 0.108 -s 1 -d 2 -p cbr -e 1000 -c 2 -i 1 -a 2 -x {1.0 5.0 1 ------- null}
- -t 0.108 -s 1 -d 2 -p cbr -e 1000 -c 2 -i 1 -a 2 -x {1.0 5.0 1 ------- null}
h -t 0.108 -s 1 -d 2 -p cbr -e 1000 -c 2 -i 1 -a 2 -x {1.0 5.0 -1 ------- null}
+ -t 0.116 -s 1 -d 2 -p cbr -e 1000 -c 2 -i 2 -a 2 -x {1.0 5.0 2 ------- null}
- -t 0.116 -s 1 -d 2 -p cbr -e 1000 -c 2 -i 2 -a 2 -x {1.0 5.0 2 ------- null}
h -t 0.116 -s 1 -d 2 -p cbr -e 1000 -c 2 -i 2 -a 2 -x {1.0 5.0 -1 ------- null}
r -t 0.118 -s 1 -d 2 -p cbr -e 1000 -c 2 -i 0 -a 2 -x {1.0 5.0 0 ------- null}
+ -t 0.118 -s 2 -d 3 -p cbr -e 1000 -c 2 -i 0 -a 2 -x {1.0 5.0 0 ------- null}
- -t 0.118 -s 2 -d 3 -p cbr -e 1000 -c 2 -i 0 -a 2 -x {1.0 5.0 0 ------- null}
h -t 0.118 -s 2 -d 3 -p cbr -e 1000 -c 2 -i 0 -a 2 -x {1.0 5.0 -1 ------- null}
+ -t 0.124 -s 1 -d 2 -p cbr -e 1000 -c 2 -i 3 -a 2 -x {1.0 5.0 3 ------- null}
- -t 0.124 -s 1 -d 2 -p cbr -e 1000 -c 2 -i 3 -a 2 -x {1.0 5.0 3 ------- null}
h -t 0.124 -s 1 -d 2 -p cbr -e 1000 -c 2 -i 3 -a 2 -x {1.0 5.0 -1 ------- null}
r -t 0.126 -s 1 -d 2 -p cbr -e 1000 -c 2 -i 1 -a 2 -x {1.0 5.0 1 ------- null}
+ -t 0.126 -s 2 -d 3 -p cbr -e 1000 -c 2 -i 1 -a 2 -x {1.0 5.0 1 ------- null}
- -t 0.126 -s 2 -d 3 -p cbr -e 1000 -c 2 -i 1 -a 2 -x {1.0 5.0 1 ------- null}
h -t 0.126 -s 2 -d 3 -p cbr -e 1000 -c 2 -i 1 -a 2 -x {1.0 5.0 -1 ------- null}
r -t 0.130666666666667 -s 2 -d 3 -p cbr -e 1000 -c 2 -i 0 -a 2 -x {1.0 5.0 0 ------- null}
+ -t 0.130666666666667 -s 3 -d 5 -p cbr -e 1000 -c 2 -i 0 -a 2 -x {1.0 5.0 0 ------- null}
- -t 0.130666666666667 -s 3 -d 5 -p cbr -e 1000 -c 2 -i 0 -a 2 -x {1.0 5.0 0 ------- null}
h -t 0.130666666666667 -s 3 -d 5 -p cbr -e 1000 -c 2 -i 0 -a 2 -x {1.0 5.0 -1 ------- null}
+ -t 0.132 -s 1 -d 2 -p cbr -e 1000 -c 2 -i 4 -a 2 -x {1.0 5.0 4 ------- null}
- -t 0.132 -s 1 -d 2 -p cbr -e 1000 -c 2 -i 4 -a 2 -x {1.0 5.0 4 ------- null}
h -t 0.132 -s 1 -d 2 -p cbr -e 1000 -c 2 -i 4 -a 2 -x {1.0 5.0 -1 ------- null}
r -t 0.134 -s 1 -d 2 -p cbr -e 1000 -c 2 -i 2 -a 2 -x {1.0 5.0 2 ------- null}
+ -t 0.134 -s 2 -d 3 -p cbr -e 1000 -c 2 -i 2 -a 2 -x {1.0 5.0 2 ------- null}
- -t 0.134 -s 2 -d 3 -p cbr -e 1000 -c 2 -i 2 -a 2 -x {1.0 5.0 2 ------- null}
h -t 0.134 -s 2 -d 3 -p cbr -e 1000 -c 2 -i 2 -a 2 -x {1.0 5.0 -1 ------- null}
r -t 0.138666666666667 -s 2 -d 3 -p cbr -e 1000 -c 2 -i 1 -a 2 -x {1.0 5.0 1 ------- null}
+ -t 0.138666666666667 -s 3 -d 5 -p cbr -e 1000 -c 2 -i 1 -a 2 -x {1.0 5.0 1 ------- null}
- -t 0.138666666666667 -s 3 -d 5 -p cbr -e 1000 -c 2 -i 1 -a 2 -x {1.0 5.0 1 ------- null}
h -t 0.138666666666667 -s 3 -d 5 -p cbr -e 1000 -c 2 -i 1 -a 2 -x {1.0 5.0 -1 ------- null}
+ -t 0.14 -s 1 -d 2 -p cbr -e 1000 -c 2 -i 5 -a 2 -x {1.0 5.0 5 ------- null}
- -t 0.14 -s 1 -d 2 -p cbr -e 1000 -c 2 -i 5 -a 2 -x {1.0 5.0 5 ------- null}
h -t 0.14 -s 1 -d 2 -p cbr -e 1000 -c 2 -i 5 -a 2 -x {1.0 5.0 -1 ------- null}
r -t 0.142 -s 1 -d 2 -p cbr -e 1000 -c 2 -i 3 -a 2 -x {1.0 5.0 3 ------- null}
+ -t 0.142 -s 2 -d 3 -p cbr -e 1000 -c 2 -i 3 -a 2 -x {1.0 5.0 3 ------- null}
- -t 0.142 -s 2 -d 3 -p cbr -e 1000 -c 2 -i 3 -a 2 -x {1.0 5.0 3 ------- null}
h -t 0.142 -s 2 -d 3 -p cbr -e 1000 -c 2 -i 3 -a 2 -x {1.0 5.0 -1 ------- null}
r -t 0.146666666666667 -s 2 -d 3 -p cbr -e 1000 -c 2 -i 2 -a 2 -x {1.0 5.0 2 ------- null}
+ -t 0.146666666666667 -s 3 -d 5 -p cbr -e 1000 -c 2 -i 2 -a 2 -x {1.0 5.0 2 ------- null}
- -t 0.146666666666667 -s 3 -d 5 -p cbr -e 1000 -c 2 -i 2 -a 2 -x {1.0 5.0 2 ------- null}
h -t 0.146666666666667 -s 3 -d 5 -p cbr -e 1000 -c 2 -i 2 -a 2 -x {1.0 5.0 -1 ------- null}
+ -t 0.148 -s 1 -d 2 -p cbr -e 1000 -c 2 -i 6 -a 2 -x {1.0 5.0 6 ------- null}
- -t 0.148 -s 1 -d 2 -p cbr -e 1000 -c 2 -i 6 -a 2 -x {1.0 5.0 6 ------- null}
h -t 0.148 -s 1 -d 2 -p cbr -e 1000 -c 2 -i 6 -a 2 -x {1.0 5.0 -1 ------- null}
r -t 0.148666666666667 -s 3 -d 5 -p cbr -e 1000 -c 2 -i 0 -a 2 -x {1.0 5.0 0 ------- null}
r -t 0.15 -s 1 -d 2 -p cbr -e 1000 -c 2 -i 4 -a 2 -x {1.0 5.0 4 ------- null}
+ -t 0.15 -s 2 -d 3 -p cbr -e 1000 -c 2 -i 4 -a 2 -x {1.0 5.0 4 ------- null}
- -t 0.15 -s 2 -d 3 -p cbr -e 1000 -c 2 -i 4 -a 2 -x {1.0 5.0 4 ------- null}
h -t 0.15 -s 2 -d 3 -p cbr -e 1000 -c 2 -i 4 -a 2 -x {1.0 5.0 -1 ------- null}
r -t 0.154666666666667 -s 2 -d 3 -p cbr -e 1000 -c 2 -i 3 -a 2 -x {1.0 5.0 3 ------- null}
+ -t 0.154666666666667 -s 3 -d 5 -p cbr -e 1000 -c 2 -i 3 -a 2 -x {1.0 5.0 3 ------- null}
- -t 0.154666666666667 -s 3 -d 5 -p cbr -e 1000 -c 2 -i 3 -a 2 -x {1.0 5.0 3 ------- null}
h -t 0.154666666666667 -s 3 -d 5 -p cbr -e 1000 -c 2 -i 3 -a 2 -x {1.0 5.0 -1 ------- null}
+ -t 0.156 -s 1 -d 2 -p cbr -e 1000 -c 2 -i 7 -a 2 -x {1.0 5.0 7 ------- null}
- -t 0.156 -s 1 -d 2 -p cbr -e 1000 -c 2 -i 7 -a 2 -x {1.0 5.0 7 ------- null}
h -t 0.156 -s 1 -d 2 -p cbr -e 1000 -c 2 -i 7 -a 2 -x {1.0 5.0 -1 ------- null}
r -t 0.156666666666667 -s 3 -d 5 -p cbr -e 1000 -c 2 -i 1 -a 2 -x {1.0 5.0 1 ------- null}
r -t 0.158 -s 1 -d 2 -p cbr -e 1000 -c 2 -i 5 -a 2 -x {1.0 5.0 5 ------- null}
+ -t 0.158 -s 2 -d 3 -p cbr -e 1000 -c 2 -i 5 -a 2 -x {1.0 5.0 5 ------- null}
- -t 0.158 -s 2 -d 3 -p cbr -e 1000 -c 2 -i 5 -a 2 -x {1.0 5.0 5 ------- null}
h -t 0.158 -s 2 -d 3 -p cbr -e 1000 -c 2 -i 5 -a 2 -x {1.0 5.0 -1 ------- null}
r -t 0.162666666666667 -s 2 -d 3 -p cbr -e 1000 -c 2 -i 4 -a 2 -x {1.0 5.0 4 ------- null}
+ -t 0.162666666666667 -s 3 -d 5 -p cbr -e 1000 -c 2 -i 4 -a 2 -x {1.0 5.0 4 ------- null}
- -t 0.162666666666667 -s 3 -d 5 -p cbr -e 1000 -c 2 -i 4 -a 2 -x {1.0 5.0 4 ------- null}
h -t 0.162666666666667 -s 3 -d 5 -p cbr -e 1000 -c 2 -i 4 -a 2 -x {1.0 5.0 -1 ------- null}
+ -t 0.164 -s 1 -d 2 -p cbr -e 1000 -c 2 -i 8 -a 2 -x {1.0 5.0 8 ------- null}
- -t 0.164 -s 1 -d 2 -p cbr -e 1000 -c 2 -i 8 -a 2 -x {1.0 5.0 8 ------- null}
h -t 0.164 -s 1 -d 2 -p cbr -e 1000 -c 2 -i 8 -a 2 -x {1.0 5.0 -1 ------- null}
r -t 0.164666666666667 -s 3 -d 5 -p cbr -e 1000 -c 2 -i 2 -a 2 -x {1.0 5.0 2 ------- null}
r -t 0.166 -s 1 -d 2 -p cbr -e 1000 -c 2 -i 6 -a 2 -x {1.0 5.0 6 ------- null}
+ -t 0.166 -s 2 -d 3 -p cbr -e 1000 -c 2 -i 6 -a 2 -x {1.0 5.0 6 ------- null}
- -t 0.166 -s 2 -d 3 -p cbr -e 1000 -c 2 -i 6 -a 2 -x {1.0 5.0 6 ------- null}
h -t 0.166 -s 2 -d 3 -p cbr -e 1000 -c 2 -i 6 -a 2 -x {1.0 5.0 -1 ------- null}
r -t 0.170666666666667 -s 2 -d 3 -p cbr -e 1000 -c 2 -i 5 -a 2 -x {1.0 5.0 5 ------- null}
+ -t 0.170666666666667 -s 3 -d 5 -p cbr -e 1000 -c 2 -i 5 -a 2 -x {1.0 5.0 5 ------- null}
- -t 0.170666666666667 -s 3 -d 5 -p cbr -e 1000 -c 2 -i 5 -a 2 -x {1.0 5.0 5 ------- null}
h -t 0.170666666666667 -s 3 -d 5 -p cbr -e 1000 -c 2 -i 5 -a 2 -x {1.0 5.0 -1 ------- null}
+ -t 0.172 -s 1 -d 2 -p cbr -e 1000 -c 2 -i 9 -a 2 -x {1.0 5.0 9 ------- null}
- -t 0.172 -s 1 -d 2 -p cbr -e 1000 -c 2 -i 9 -a 2 -x {1.0 5.0 9 ------- null}
h -t 0.172 -s 1 -d 2 -p cbr -e 1000 -c 2 -i 9 -a 2 -x {1.0 5.0 -1 ------- null}
r -t 0.172666666666667 -s 3 -d 5 -p cbr -e 1000 -c 2 -i 3 -a 2 -x {1.0 5.0 3 ------- null}
r -t 0.174 -s 1 -d 2 -p cbr -e 1000 -c 2 -i 7 -a 2 -x {1.0 5.0 7 ------- null}
+ -t 0.174 -s 2 -d 3 -p cbr -e 1000 -c 2 -i 7 -a 2 -x {1.0 5.0 7 ------- null}
- -t 0.174 -s 2 -d 3 -p cbr -e 1000 -c 2 -i 7 -a 2 -x {1.0 5.0 7 ------- null}
h -t 0.174 -s 2 -d 3 -p cbr -e 1000 -c 2 -i 7 -a 2 -x {1.0 5.0 -1 ------- null}
r -t 0.178666666666667 -s 2 -d 3 -p cbr -e 1000 -c 2 -i 6 -a 2 -x {1.0 5.0 6 ------- null}
+ -t 0.178666666666667 -s 3 -d 5 -p cbr -e 1000 -c 2 -i 6 -a 2 -x {1.0 5.0 6 ------- null}
- -t 0.178666666666667 -s 3 -d 5 -p cbr -e 1000 -c 2 -i 6 -a 2 -x {1.0 5.0 6 ------- null}
h -t 0.178666666666667 -s 3 -d 5 -p cbr -e 1000 -c 2 -i 6 -a 2 -x {1.0 5.0 -1 ------- null}
+ -t 0.18 -s 1 -d 2 -p cbr -e 1000 -c 2 -i 10 -a 2 -x {1.0 5.0 10 ------- null}
- -t 0.18 -s 1 -d 2 -p cbr -e 1000 -c 2 -i 10 -a 2 -x {1.0 5.0 10 ------- null}
h -t 0.18 -s 1 -d 2 -p cbr -e 1000 -c 2 -i 10 -a 2 -x {1.0 5.0 -1 ------- null}
r -t 0.180666666666667 -s 3 -d 5 -p cbr -e 1000 -c 2 -i 4 -a 2 -x {1.0 5.0 4 ------- null}
r -t 0.182 -s 1 -d 2 -p cbr -e 1000 -c 2 -i 8 -a 2 -x {1.0 5.0 8 ------- null}
+ -t 0.182 -s 2 -d 3 -p cbr -e 1000 -c 2 -i 8 -a 2 -x {1.0 5.0 8 ------- null}
- -t 0.182 -s 2 -d 3 -p cbr -e 1000 -c 2 -i 8 -a 2 -x {1.0 5.0 8 ------- null}
h -t 0.182 -s 2 -d 3 -p cbr -e 1000 -c 2 -i 8 -a 2 -x {1.0 5.0 -1 ------- null}
r -t 0.186666666666667 -s 2 -d 3 -p cbr -e 1000 -c 2 -i 7 -a 2 -x {1.0 5.0 7 ------- null}
+ -t 0.186666666666667 -s 3 -d 5 -p cbr -e 1000 -c 2 -i 7 -a 2 -x {1.0 5.0 7 ------- null}
- -t 0.186666666666667 -s 3 -d 5 -p cbr -e 1000 -c 2 -i 7 -a 2 -x {1.0 5.0 7 ------- null}
h -t 0.186666666666667 -s 3 -d 5 -p cbr -e 1000 -c 2 -i 7 -a 2 -x {1.0 5.0 -1 ------- null}
+ -t 0.188 -s 1 -d 2 -p cbr -e 1000 -c 2 -i 11 -a 2 -x {1.0 5.0 11 ------- null}
- -t 0.188 -s 1 -d 2 -p cbr -e 1000 -c 2 -i 11 -a 2 -x {1.0 5.0 11 ------- null}
h -t 0.188 -s 1 -d 2 -p cbr -e 1000 -c 2 -i 11 -a 2 -x {1.0 5.0 -1 ------- null}
r -t 0.188666666666667 -s 3 -d 5 -p cbr -e 1000 -c 2 -i 5 -a 2 -x {1.0 5.0 5 ------- null}
r -t 0.19 -s 1 -d 2 -p cbr -e 1000 -c 2 -i 9 -a 2 -x {1.0 5.0 9 ------- null}
+ -t 0.19 -s 2 -d 3 -p cbr -e 1000 -c 2 -i 9 -a 2 -x {1.0 5.0 9 ------- null}
- -t 0.19 -s 2 -d 3 -p cbr -e 1000 -c 2 -i 9 -a 2 -x {1.0 5.0 9 ------- null}
h -t 0.19 -s 2 -d 3 -p cbr -e 1000 -c 2 -i 9 -a 2 -x {1.0 5.0 -1 ------- null}
r -t 0.194666666666667 -s 2 -d 3 -p cbr -e 1000 -c 2 -i 8 -a 2 -x {1.0 5.0 8 ------- null}
+ -t 0.194666666666667 -s 3 -d 5 -p cbr -e 1000 -c 2 -i 8 -a 2 -x {1.0 5.0 8 ------- null}
- -t 0.194666666666667 -s 3 -d 5 -p cbr -e 1000 -c 2 -i 8 -a 2 -x {1.0 5.0 8 ------- null}
h -t 0.194666666666667 -s 3 -d 5 -p cbr -e 1000 -c 2 -i 8 -a 2 -x {1.0 5.0 -1 ------- null}
+ -t 0.196 -s 1 -d 2 -p cbr -e 1000 -c 2 -i 12 -a 2 -x {1.0 5.0 12 ------- null}
- -t 0.196 -s 1 -d 2 -p cbr -e 1000 -c 2 -i 12 -a 2 -x {1.0 5.0 12 ------- null}
h -t 0.196 -s 1 -d 2 -p cbr -e 1000 -c 2 -i 12 -a 2 -x {1.0 5.0 -1 ------- null}
r -t 0.196666666666667 -s 3 -d 5 -p cbr -e 1000 -c 2 -i 6 -a 2 -x {1.0 5.0 6 ------- null}
r -t 0.198 -s 1 -d 2 -p cbr -e 1000 -c 2 -i 10 -a 2 -x {1.0 5.0 10 ------- null}
+ -t 0.198 -s 2 -d 3 -p cbr -e 1000 -c 2 -i 10 -a 2 -x {1.0 5.0 10 ------- null}
- -t 0.198 -s 2 -d 3 -p cbr -e 1000 -c 2 -i 10 -a 2 -x {1.0 5.0 10 ------- null}
h -t 0.198 -s 2 -d 3 -p cbr -e 1000 -c 2 -i 10 -a 2 -x {1.0 5.0 -1 ------- null}
r -t 0.202666666666667 -s 2 -d 3 -p cbr -e 1000 -c 2 -i 9 -a 2 -x {1.0 5.0 9 ------- null}
+ -t 0.202666666666667 -s 3 -d 5 -p cbr -e 1000 -c 2 -i 9 -a 2 -x {1.0 5.0 9 ------- null}
- -t 0.202666666666667 -s 3 -d 5 -p cbr -e 1000 -c 2 -i 9 -a 2 -x {1.0 5.0 9 ------- null}
h -t 0.202666666666667 -s 3 -d 5 -p cbr -e 1000 -c 2 -i 9 -a 2 -x {1.0 5.0 -1 ------- null}
+ -t 0.204 -s 1 -d 2 -p cbr -e 1000 -c 2 -i 13 -a 2 -x {1.0 5.0 13 ------- null}
- -t 0.204 -s 1 -d 2 -p cbr -e 1000 -c 2 -i 13 -a 2 -x {1.0 5.0 13 ------- null}
h -t 0.204 -s 1 -d 2 -p cbr -e 1000 -c 2 -i 13 -a 2 -x {1.0 5.0 -1 ------- null}
r -t 0.204666666666667 -s 3 -d 5 -p cbr -e 1000 -c 2 -i 7 -a 2 -x {1.0 5.0 7 ------- null}
r -t 0.206 -s 1 -d 2 -p cbr -e 1000 -c 2 -i 11 -a 2 -x {1.0 5.0 11 ------- null}
+ -t 0.206 -s 2 -d 3 -p cbr -e 1000 -c 2 -i 11 -a 2 -x {1.0 5.0 11 ------- null}
- -t 0.206 -s 2 -d 3 -p cbr -e 1000 -c 2 -i 11 -a 2 -x {1.0 5.0 11 ------- null}
h -t 0.206 -s 2 -d 3 -p cbr -e 1000 -c 2 -i 11 -a 2 -x {1.0 5.0 -1 ------- null}
r -t 0.210666666666667 -s 2 -d 3 -p cbr -e 1000 -c 2 -i 10 -a 2 -x {1.0 5.0 10 ------- null}
+ -t 0.210666666666667 -s 3 -d 5 -p cbr -e 1000 -c 2 -i 10 -a 2 -x {1.0 5.0 10 ------- null}
- -t 0.210666666666667 -s 3 -d 5 -p cbr -e 1000 -c 2 -i 10 -a 2 -x {1.0 5.0 10 ------- null}
h -t 0.210666666666667 -s 3 -d 5 -p cbr -e 1000 -c 2 -i 10 -a 2 -x {1.0 5.0 -1 ------- null}
+ -t 0.212 -s 1 -d 2 -p cbr -e 1000 -c 2 -i 14 -a 2 -x {1.0 5.0 14 ------- null}
- -t 0.212 -s 1 -d 2 -p cbr -e 1000 -c 2 -i 14 -a 2 -x {1.0 5.0 14 ------- null}
h -t 0.212 -s 1 -d 2 -p cbr -e 1000 -c 2 -i 14 -a 2 -x {1.0 5.0 -1 ------- null}
r -t 0.212666666666667 -s 3 -d 5 -p cbr -e 1000 -c 2 -i 8 -a 2 -x {1.0 5.0 8 ------- null}
r -t 0.214 -s 1 -d 2 -p cbr -e 1000 -c 2 -i 12 -a 2 -x {1.0 5.0 12 ------- null}
+ -t 0.214 -s 2 -d 3 -p cbr -e 1000 -c 2 -i 12 -a 2 -x {1.0 5.0 12 ------- null}
- -t 0.214 -s 2 -d 3 -p cbr -e 1000 -c 2 -i 12 -a 2 -x {1.0 5.0 12 ------- null}
h -t 0.214 -s 2 -d 3 -p cbr -e 1000 -c 2 -i 12 -a 2 -x {1.0 5.0 -1 ------- null}
r -t 0.218666666666667 -s 2 -d 3 -p cbr -e 1000 -c 2 -i 11 -a 2 -x {1.0 5.0 11 ------- null}
+ -t 0.218666666666667 -s 3 -d 5 -p cbr -e 1000 -c 2 -i 11 -a 2 -x {1.0 5.0 11 ------- null}
- -t 0.218666666666667 -s 3 -d 5 -p cbr -e 1000 -c 2 -i 11 -a 2 -x {1.0 5.0 11 ------- null}
h -t 0.218666666666667 -s 3 -d 5 -p cbr -e 1000 -c 2 -i 11 -a 2 -x {1.0 5.0 -1 ------- null}
+ -t 0.22 -s 1 -d 2 -p cbr -e 1000 -c 2 -i 15 -a 2 -x {1.0 5.0 15 ------- null}
- -t 0.22 -s 1 -d 2 -p cbr -e 1000 -c 2 -i 15 -a 2 -x {1.0 5.0 15 ------- null}
h -t 0.22 -s 1 -d 2 -p cbr -e 1000 -c 2 -i 15 -a 2 -x {1.0 5.0 -1 ------- null}
r -t 0.220666666666667 -s 3 -d 5 -p cbr -e 1000 -c 2 -i 9 -a 2 -x {1.0 5.0 9 ------- null}
r -t 0.222 -s 1 -d 2 -p cbr -e 1000 -c 2 -i 13 -a 2 -x {1.0 5.0 13 ------- null}
+ -t 0.222 -s 2 -d 3 -p cbr -e 1000 -c 2 -i 13 -a 2 -x {1.0 5.0 13 ------- null}
- -t 0.222 -s 2 -d 3 -p cbr -e 1000 -c 2 -i 13 -a 2 -x {1.0 5.0 13 ------- null}
h -t 0.222 -s 2 -d 3 -p cbr -e 1000 -c 2 -i 13 -a 2 -x {1.0 5.0 -1 ------- null}
r -t 0.226666666666667 -s 2 -d 3 -p cbr -e 1000 -c 2 -i 12 -a 2 -x {1.0 5.0 12 ------- null}
+ -t 0.226666666666667 -s 3 -d 5 -p cbr -e 1000 -c 2 -i 12 -a 2 -x {1.0 5.0 12 ------- null}
- -t 0.226666666666667 -s 3 -d 5 -p cbr -e 1000 -c 2 -i 12 -a 2 -x {1.0 5.0 12 ------- null}
h -t 0.226666666666667 -s 3 -d 5 -p cbr -e 1000 -c 2 -i 12 -a 2 -x {1.0 5.0 -1 ------- null}
+ -t 0.228 -s 1 -d 2 -p cbr -e 1000 -c 2 -i 16 -a 2 -x {1.0 5.0 16 ------- null}
- -t 0.228 -s 1 -d 2 -p cbr -e 1000 -c 2 -i 16 -a 2 -x {1.0 5.0 16 ------- null}
h -t 0.228 -s 1 -d 2 -p cbr -e 1000 -c 2 -i 16 -a 2 -x {1.0 5.0 -1 ------- null}
r -t 0.228666666666667 -s 3 -d 5 -p cbr -e 1000 -c 2 -i 10 -a 2 -x {1.0 5.0 10 ------- null}
r -t 0.23 -s 1 -d 2 -p cbr -e 1000 -c 2 -i 14 -a 2 -x {1.0 5.0 14 ------- null}
+ -t 0.23 -s 2 -d 3 -p cbr -e 1000 -c 2 -i 14 -a 2 -x {1.0 5.0 14 ------- null}
- -t 0.23 -s 2 -d 3 -p cbr -e 1000 -c 2 -i 14 -a 2 -x {1.0 5.0 14 ------- null}
h -t 0.23 -s 2 -d 3 -p cbr -e 1000 -c 2 -i 14 -a 2 -x {1.0 5.0 -1 ------- null}
r -t 0.234666666666667 -s 2 -d 3 -p cbr -e 1000 -c 2 -i 13 -a 2 -x {1.0 5.0 13 ------- null}
+ -t 0.234666666666667 -s 3 -d 5 -p cbr -e 1000 -c 2 -i 13 -a 2 -x {1.0 5.0 13 ------- null}
- -t 0.234666666666667 -s 3 -d 5 -p cbr -e 1000 -c 2 -i 13 -a 2 -x {1.0 5.0 13 ------- null}
h -t 0.234666666666667 -s 3 -d 5 -p cbr -e 1000 -c 2 -i 13 -a 2 -x {1.0 5.0 -1 ------- null}
+ -t 0.236 -s 1 -d 2 -p cbr -e 1000 -c 2 -i 17 -a 2 -x {1.0 5.0 17 ------- null}
- -t 0.236 -s 1 -d 2 -p cbr -e 1000 -c 2 -i 17 -a 2 -x {1.0 5.0 17 ------- null}
h -t 0.236 -s 1 -d 2 -p cbr -e 1000 -c 2 -i 17 -a 2 -x {1.0 5.0 -1 ------- null}
r -t 0.236666666666667 -s 3 -d 5 -p cbr -e 1000 -c 2 -i 11 -a 2 -x {1.0 5.0 11 ------- null}
r -t 0.238 -s 1 -d 2 -p cbr -e 1000 -c 2 -i 15 -a 2 -x {1.0 5.0 15 ------- null}
+ -t 0.238 -s 2 -d 3 -p cbr -e 1000 -c 2 -i 15 -a 2 -x {1.0 5.0 15 ------- null}
- -t 0.238 -s 2 -d 3 -p cbr -e 1000 -c 2 -i 15 -a 2 -x {1.0 5.0 15 ------- null}
h -t 0.238 -s 2 -d 3 -p cbr -e 1000 -c 2 -i 15 -a 2 -x {1.0 5.0 -1 ------- null}
r -t 0.242666666666667 -s 2 -d 3 -p cbr -e 1000 -c 2 -i 14 -a 2 -x {1.0 5.0 14 ------- null}
+ -t 0.242666666666667 -s 3 -d 5 -p cbr -e 1000 -c 2 -i 14 -a 2 -x {1.0 5.0 14 ------- null}
- -t 0.242666666666667 -s 3 -d 5 -p cbr -e 1000 -c 2 -i 14 -a 2 -x {1.0 5.0 14 ------- null}
h -t 0.242666666666667 -s 3 -d 5 -p cbr -e 1000 -c 2 -i 14 -a 2 -x {1.0 5.0 -1 ------- null}
+ -t 0.244 -s 1 -d 2 -p cbr -e 1000 -c 2 -i 18 -a 2 -x {1.0 5.0 18 ------- null}
- -t 0.244 -s 1 -d 2 -p cbr -e 1000 -c 2 -i 18 -a 2 -x {1.0 5.0 18 ------- null}
h -t 0.244 -s 1 -d 2 -p cbr -e 1000 -c 2 -i 18 -a 2 -x {1.0 5.0 -1 ------- null}
r -t 0.244666666666667 -s 3 -d 5 -p cbr -e 1000 -c 2 -i 12 -a 2 -x {1.0 5.0 12 ------- null}
r -t 0.246 -s 1 -d 2 -p cbr -e 1000 -c 2 -i 16 -a 2 -x {1.0 5.0 16 ------- null}
+ -t 0.246 -s 2 -d 3 -p cbr -e 1000 -c 2 -i 16 -a 2 -x {1.0 5.0 16 ------- null}
- -t 0.246 -s 2 -d 3 -p cbr -e 1000 -c 2 -i 16 -a 2 -x {1.0 5.0 16 ------- null}
h -t 0.246 -s 2 -d 3 -p cbr -e 1000 -c 2 -i 16 -a 2 -x {1.0 5.0 -1 ------- null}
r -t 0.250666666666667 -s 2 -d 3 -p cbr -e 1000 -c 2 -i 15 -a 2 -x {1.0 5.0 15 ------- null}
+ -t 0.250666666666667 -s 3 -d 5 -p cbr -e 1000 -c 2 -i 15 -a 2 -x {1.0 5.0 15 ------- null}
- -t 0.250666666666667 -s 3 -d 5 -p cbr -e 1000 -c 2 -i 15 -a 2 -x {1.0 5.0 15 ------- null}
h -t 0.250666666666667 -s 3 -d 5 -p cbr -e 1000 -c 2 -i 15 -a 2 -x {1.0 5.0 -1 ------- null}
+ -t 0.252 -s 1 -d 2 -p cbr -e 1000 -c 2 -i 19 -a 2 -x {1.0 5.0 19 ------- null}
- -t 0.252 -s 1 -d 2 -p cbr -e 1000 -c 2 -i 19 -a 2 -x {1.0 5.0 19 ------- null}
h -t 0.252 -s 1 -d 2 -p cbr -e 1000 -c 2 -i 19 -a 2 -x {1.0 5.0 -1 ------- null}
r -t 0.252666666666667 -s 3 -d 5 -p cbr -e 1000 -c 2 -i 13 -a 2 -x {1.0 5.0 13 ------- null}
r -t 0.254 -s 1 -d 2 -p cbr -e 1000 -c 2 -i 17 -a 2 -x {1.0 5.0 17 ------- null}
+ -t 0.254 -s 2 -d 3 -p cbr -e 1000 -c 2 -i 17 -a 2 -x {1.0 5.0 17 ------- null}
- -t 0.254 -s 2 -d 3 -p cbr -e 1000 -c 2 -i 17 -a 2 -x {1.0 5.0 17 ------- null}
h -t 0.254 -s 2 -d 3 -p cbr -e 1000 -c 2 -i 17 -a 2 -x {1.0 5.0 -1 ------- null}
r -t 0.258666666666667 -s 2 -d 3 -p cbr -e 1000 -c 2 -i 16 -a 2 -x {1.0 5.0 16 ------- null}
+ -t 0.258666666666667 -s 3 -d 5 -p cbr -e 1000 -c 2 -i 16 -a 2 -x {1.0 5.0 16 ------- null}
- -t 0.258666666666667 -s 3 -d 5 -p cbr -e 1000 -c 2 -i 16 -a 2 -x {1.0 5.0 16 ------- null}
h -t 0.258666666666667 -s 3 -d 5 -p cbr -e 1000 -c 2 -i 16 -a 2 -x {1.0 5.0 -1 ------- null}
+ -t 0.26 -s 1 -d 2 -p cbr -e 1000 -c 2 -i 20 -a 2 -x {1.0 5.0 20 ------- null}
- -t 0.26 -s 1 -d 2 -p cbr -e 1000 -c 2 -i 20 -a 2 -x {1.0 5.0 20 ------- null}
h -t 0.26 -s 1 -d 2 -p cbr -e 1000 -c 2 -i 20 -a 2 -x {1.0 5.0 -1 ------- null}
r -t 0.260666666666667 -s 3 -d 5 -p cbr -e 1000 -c 2 -i 14 -a 2 -x {1.0 5.0 14 ------- null}
r -t 0.262 -s 1 -d 2 -p cbr -e 1000 -c 2 -i 18 -a 2 -x {1.0 5.0 18 ------- null}
+ -t 0.262 -s 2 -d 3 -p cbr -e 1000 -c 2 -i 18 -a 2 -x {1.0 5.0 18 ------- null}
- -t 0.262 -s 2 -d 3 -p cbr -e 1000 -c 2 -i 18 -a 2 -x {1.0 5.0 18 ------- null}
h -t 0.262 -s 2 -d 3 -p cbr -e 1000 -c 2 -i 18 -a 2 -x {1.0 5.0 -1 ------- null}
r -t 0.266666666666667 -s 2 -d 3 -p cbr -e 1000 -c 2 -i 17 -a 2 -x {1.0 5.0 17 ------- null}
+ -t 0.266666666666667 -s 3 -d 5 -p cbr -e 1000 -c 2 -i 17 -a 2 -x {1.0 5.0 17 ------- null}
- -t 0.266666666666667 -s 3 -d 5 -p cbr -e 1000 -c 2 -i 17 -a 2 -x {1.0 5.0 17 ------- null}
h -t 0.266666666666667 -s 3 -d 5 -p cbr -e 1000 -c 2 -i 17 -a 2 -x {1.0 5.0 -1 ------- null}
+ -t 0.268 -s 1 -d 2 -p cbr -e 1000 -c 2 -i 21 -a 2 -x {1.0 5.0 21 ------- null}
- -t 0.268 -s 1 -d 2 -p cbr -e 1000 -c 2 -i 21 -a 2 -x {1.0 5.0 21 ------- null}
h -t 0.268 -s 1 -d 2 -p cbr -e 1000 -c 2 -i 21 -a 2 -x {1.0 5.0 -1 ------- null}
r -t 0.268666666666667 -s 3 -d 5 -p cbr -e 1000 -c 2 -i 15 -a 2 -x {1.0 5.0 15 ------- null}
r -t 0.27 -s 1 -d 2 -p cbr -e 1000 -c 2 -i 19 -a 2 -x {1.0 5.0 19 ------- null}
+ -t 0.27 -s 2 -d 3 -p cbr -e 1000 -c 2 -i 19 -a 2 -x {1.0 5.0 19 ------- null}
- -t 0.27 -s 2 -d 3 -p cbr -e 1000 -c 2 -i 19 -a 2 -x {1.0 5.0 19 ------- null}
h -t 0.27 -s 2 -d 3 -p cbr -e 1000 -c 2 -i 19 -a 2 -x {1.0 5.0 -1 ------- null}
r -t 0.274666666666667 -s 2 -d 3 -p cbr -e 1000 -c 2 -i 18 -a 2 -x {1.0 5.0 18 ------- null}
+ -t 0.274666666666667 -s 3 -d 5 -p cbr -e 1000 -c 2 -i 18 -a 2 -x {1.0 5.0 18 ------- null}
- -t 0.274666666666667 -s 3 -d 5 -p cbr -e 1000 -c 2 -i 18 -a 2 -x {1.0 5.0 18 ------- null}
h -t 0.274666666666667 -s 3 -d 5 -p cbr -e 1000 -c 2 -i 18 -a 2 -x {1.0 5.0 -1 ------- null}
+ -t 0.276 -s 1 -d 2 -p cbr -e 1000 -c 2 -i 22 -a 2 -x {1.0 5.0 22 ------- null}
- -t 0.276 -s 1 -d 2 -p cbr -e 1000 -c 2 -i 22 -a 2 -x {1.0 5.0 22 ------- null}
h -t 0.276 -s 1 -d 2 -p cbr -e 1000 -c 2 -i 22 -a 2 -x {1.0 5.0 -1 ------- null}
r -t 0.276666666666667 -s 3 -d 5 -p cbr -e 1000 -c 2 -i 16 -a 2 -x {1.0 5.0 16 ------- null}
r -t 0.278 -s 1 -d 2 -p cbr -e 1000 -c 2 -i 20 -a 2 -x {1.0 5.0 20 ------- null}
+ -t 0.278 -s 2 -d 3 -p cbr -e 1000 -c 2 -i 20 -a 2 -x {1.0 5.0 20 ------- null}
- -t 0.278 -s 2 -d 3 -p cbr -e 1000 -c 2 -i 20 -a 2 -x {1.0 5.0 20 ------- null}
h -t 0.278 -s 2 -d 3 -p cbr -e 1000 -c 2 -i 20 -a 2 -x {1.0 5.0 -1 ------- null}
r -t 0.282666666666667 -s 2 -d 3 -p cbr -e 1000 -c 2 -i 19 -a 2 -x {1.0 5.0 19 ------- null}
+ -t 0.282666666666667 -s 3 -d 5 -p cbr -e 1000 -c 2 -i 19 -a 2 -x {1.0 5.0 19 ------- null}
- -t 0.282666666666667 -s 3 -d 5 -p cbr -e 1000 -c 2 -i 19 -a 2 -x {1.0 5.0 19 ------- null}
h -t 0.282666666666667 -s 3 -d 5 -p cbr -e 1000 -c 2 -i 19 -a 2 -x {1.0 5.0 -1 ------- null}
+ -t 0.284 -s 1 -d 2 -p cbr -e 1000 -c 2 -i 23 -a 2 -x {1.0 5.0 23 ------- null}
- -t 0.284 -s 1 -d 2 -p cbr -e 1000 -c 2 -i 23 -a 2 -x {1.0 5.0 23 ------- null}
h -t 0.284 -s 1 -d 2 -p cbr -e 1000 -c 2 -i 23 -a 2 -x {1.0 5.0 -1 ------- null}
r -t 0.284666666666667 -s 3 -d 5 -p cbr -e 1000 -c 2 -i 17 -a 2 -x {1.0 5.0 17 ------- null}
r -t 0.286 -s 1 -d 2 -p cbr -e 1000 -c 2 -i 21 -a 2 -x {1.0 5.0 21 ------- null}
+ -t 0.286 -s 2 -d 3 -p cbr -e 1000 -c 2 -i 21 -a 2 -x {1.0 5.0 21 ------- null}
- -t 0.286 -s 2 -d 3 -p cbr -e 1000 -c 2 -i 21 -a 2 -x {1.0 5.0 21 ------- null}
h -t 0.286 -s 2 -d 3 -p cbr -e 1000 -c 2 -i 21 -a 2 -x {1.0 5.0 -1 ------- null}
r -t 0.290666666666667 -s 2 -d 3 -p cbr -e 1000 -c 2 -i 20 -a 2 -x {1.0 5.0 20 ------- null}
+ -t 0.290666666666667 -s 3 -d 5 -p cbr -e 1000 -c 2 -i 20 -a 2 -x {1.0 5.0 20 ------- null}
- -t 0.290666666666667 -s 3 -d 5 -p cbr -e 1000 -c 2 -i 20 -a 2 -x {1.0 5.0 20 ------- null}
h -t 0.290666666666667 -s 3 -d 5 -p cbr -e 1000 -c 2 -i 20 -a 2 -x {1.0 5.0 -1 ------- null}
+ -t 0.292 -s 1 -d 2 -p cbr -e 1000 -c 2 -i 24 -a 2 -x {1.0 5.0 24 ------- null}
- -t 0.292 -s 1 -d 2 -p cbr -e 1000 -c 2 -i 24 -a 2 -x {1.0 5.0 24 ------- null}
h -t 0.292 -s 1 -d 2 -p cbr -e 1000 -c 2 -i 24 -a 2 -x {1.0 5.0 -1 ------- null}
r -t 0.292666666666667 -s 3 -d 5 -p cbr -e 1000 -c 2 -i 18 -a 2 -x {1.0 5.0 18 ------- null}
r -t 0.294 -s 1 -d 2 -p cbr -e 1000 -c 2 -i 22 -a 2 -x {1.0 5.0 22 ------- null}
+ -t 0.294 -s 2 -d 3 -p cbr -e 1000 -c 2 -i 22 -a 2 -x {1.0 5.0 22 ------- null}
- -t 0.294 -s 2 -d 3 -p cbr -e 1000 -c 2 -i 22 -a 2 -x {1.0 5.0 22 ------- null}
h -t 0.294 -s 2 -d 3 -p cbr -e 1000 -c 2 -i 22 -a 2 -x {1.0 5.0 -1 ------- null}
r -t 0.298666666666667 -s 2 -d 3 -p cbr -e 1000 -c 2 -i 21 -a 2 -x {1.0 5.0 21 ------- null}
+ -t 0.298666666666667 -s 3 -d 5 -p cbr -e 1000 -c 2 -i 21 -a 2 -x {1.0 5.0 21 ------- null}
- -t 0.298666666666667 -s 3 -d 5 -p cbr -e 1000 -c 2 -i 21 -a 2 -x {1.0 5.0 21 ------- null}
h -t 0.298666666666667 -s 3 -d 5 -p cbr -e 1000 -c 2 -i 21 -a 2 -x {1.0 5.0 -1 ------- null}
+ -t 0.3 -s 1 -d 2 -p cbr -e 1000 -c 2 -i 25 -a 2 -x {1.0 5.0 25 ------- null}
- -t 0.3 -s 1 -d 2 -p cbr -e 1000 -c 2 -i 25 -a 2 -x {1.0 5.0 25 ------- null}
h -t 0.3 -s 1 -d 2 -p cbr -e 1000 -c 2 -i 25 -a 2 -x {1.0 5.0 -1 ------- null}
r -t 0.300666666666667 -s 3 -d 5 -p cbr -e 1000 -c 2 -i 19 -a 2 -x {1.0 5.0 19 ------- null}
r -t 0.302 -s 1 -d 2 -p cbr -e 1000 -c 2 -i 23 -a 2 -x {1.0 5.0 23 ------- null}
+ -t 0.302 -s 2 -d 3 -p cbr -e 1000 -c 2 -i 23 -a 2 -x {1.0 5.0 23 ------- null}
- -t 0.302 -s 2 -d 3 -p cbr -e 1000 -c 2 -i 23 -a 2 -x {1.0 5.0 23 ------- null}
h -t 0.302 -s 2 -d 3 -p cbr -e 1000 -c 2 -i 23 -a 2 -x {1.0 5.0 -1 ------- null}
r -t 0.306666666666667 -s 2 -d 3 -p cbr -e 1000 -c 2 -i 22 -a 2 -x {1.0 5.0 22 ------- null}
+ -t 0.306666666666667 -s 3 -d 5 -p cbr -e 1000 -c 2 -i 22 -a 2 -x {1.0 5.0 22 ------- null}
- -t 0.306666666666667 -s 3 -d 5 -p cbr -e 1000 -c 2 -i 22 -a 2 -x {1.0 5.0 22 ------- null}
h -t 0.306666666666667 -s 3 -d 5 -p cbr -e 1000 -c 2 -i 22 -a 2 -x {1.0 5.0 -1 ------- null}
+ -t 0.308 -s 1 -d 2 -p cbr -e 1000 -c 2 -i 26 -a 2 -x {1.0 5.0 26 ------- null}
- -t 0.308 -s 1 -d 2 -p cbr -e 1000 -c 2 -i 26 -a 2 -x {1.0 5.0 26 ------- null}
h -t 0.308 -s 1 -d 2 -p cbr -e 1000 -c 2 -i 26 -a 2 -x {1.0 5.0 -1 ------- null}
r -t 0.308666666666667 -s 3 -d 5 -p cbr -e 1000 -c 2 -i 20 -a 2 -x {1.0 5.0 20 ------- null}
r -t 0.31 -s 1 -d 2 -p cbr -e 1000 -c 2 -i 24 -a 2 -x {1.0 5.0 24 ------- null}
+ -t 0.31 -s 2 -d 3 -p cbr -e 1000 -c 2 -i 24 -a 2 -x {1.0 5.0 24 ------- null}
- -t 0.31 -s 2 -d 3 -p cbr -e 1000 -c 2 -i 24 -a 2 -x {1.0 5.0 24 ------- null}
h -t 0.31 -s 2 -d 3 -p cbr -e 1000 -c 2 -i 24 -a 2 -x {1.0 5.0 -1 ------- null}
r -t 0.314666666666667 -s 2 -d 3 -p cbr -e 1000 -c 2 -i 23 -a 2 -x {1.0 5.0 23 ------- null}
+ -t 0.314666666666667 -s 3 -d 5 -p cbr -e 1000 -c 2 -i 23 -a 2 -x {1.0 5.0 23 ------- null}
- -t 0.314666666666667 -s 3 -d 5 -p cbr -e 1000 -c 2 -i 23 -a 2 -x {1.0 5.0 23 ------- null}
h -t 0.314666666666667 -s 3 -d 5 -p cbr -e 1000 -c 2 -i 23 -a 2 -x {1.0 5.0 -1 ------- null}
+ -t 0.316 -s 1 -d 2 -p cbr -e 1000 -c 2 -i 27 -a 2 -x {1.0 5.0 27 ------- null}
- -t 0.316 -s 1 -d 2 -p cbr -e 1000 -c 2 -i 27 -a 2 -x {1.0 5.0 27 ------- null}
h -t 0.316 -s 1 -d 2 -p cbr -e 1000 -c 2 -i 27 -a 2 -x {1.0 5.0 -1 ------- null}
r -t 0.316666666666667 -s 3 -d 5 -p cbr -e 1000 -c 2 -i 21 -a 2 -x {1.0 5.0 21 ------- null}
r -t 0.318 -s 1 -d 2 -p cbr -e 1000 -c 2 -i 25 -a 2 -x {1.0 5.0 25 ------- null}
+ -t 0.318 -s 2 -d 3 -p cbr -e 1000 -c 2 -i 25 -a 2 -x {1.0 5.0 25 ------- null}
- -t 0.318 -s 2 -d 3 -p cbr -e 1000 -c 2 -i 25 -a 2 -x {1.0 5.0 25 ------- null}
h -t 0.318 -s 2 -d 3 -p cbr -e 1000 -c 2 -i 25 -a 2 -x {1.0 5.0 -1 ------- null}
r -t 0.322666666666667 -s 2 -d 3 -p cbr -e 1000 -c 2 -i 24 -a 2 -x {1.0 5.0 24 ------- null}
+ -t 0.322666666666667 -s 3 -d 5 -p cbr -e 1000 -c 2 -i 24 -a 2 -x {1.0 5.0 24 ------- null}
- -t 0.322666666666667 -s 3 -d 5 -p cbr -e 1000 -c 2 -i 24 -a 2 -x {1.0 5.0 24 ------- null}
h -t 0.322666666666667 -s 3 -d 5 -p cbr -e 1000 -c 2 -i 24 -a 2 -x {1.0 5.0 -1 ------- null}
+ -t 0.324 -s 1 -d 2 -p cbr -e 1000 -c 2 -i 28 -a 2 -x {1.0 5.0 28 ------- null}
- -t 0.324 -s 1 -d 2 -p cbr -e 1000 -c 2 -i 28 -a 2 -x {1.0 5.0 28 ------- null}
h -t 0.324 -s 1 -d 2 -p cbr -e 1000 -c 2 -i 28 -a 2 -x {1.0 5.0 -1 ------- null}
r -t 0.324666666666667 -s 3 -d 5 -p cbr -e 1000 -c 2 -i 22 -a 2 -x {1.0 5.0 22 ------- null}
r -t 0.326 -s 1 -d 2 -p cbr -e 1000 -c 2 -i 26 -a 2 -x {1.0 5.0 26 ------- null}
+ -t 0.326 -s 2 -d 3 -p cbr -e 1000 -c 2 -i 26 -a 2 -x {1.0 5.0 26 ------- null}
- -t 0.326 -s 2 -d 3 -p cbr -e 1000 -c 2 -i 26 -a 2 -x {1.0 5.0 26 ------- null}
h -t 0.326 -s 2 -d 3 -p cbr -e 1000 -c 2 -i 26 -a 2 -x {1.0 5.0 -1 ------- null}
r -t 0.330666666666667 -s 2 -d 3 -p cbr -e 1000 -c 2 -i 25 -a 2 -x {1.0 5.0 25 ------- null}
+ -t 0.330666666666667 -s 3 -d 5 -p cbr -e 1000 -c 2 -i 25 -a 2 -x {1.0 5.0 25 ------- null}
- -t 0.330666666666667 -s 3 -d 5 -p cbr -e 1000 -c 2 -i 25 -a 2 -x {1.0 5.0 25 ------- null}
h -t 0.330666666666667 -s 3 -d 5 -p cbr -e 1000 -c 2 -i 25 -a 2 -x {1.0 5.0 -1 ------- null}
+ -t 0.332 -s 1 -d 2 -p cbr -e 1000 -c 2 -i 29 -a 2 -x {1.0 5.0 29 ------- null}
- -t 0.332 -s 1 -d 2 -p cbr -e 1000 -c 2 -i 29 -a 2 -x {1.0 5.0 29 ------- null}
h -t 0.332 -s 1 -d 2 -p cbr -e 1000 -c 2 -i 29 -a 2 -x {1.0 5.0 -1 ------- null}
r -t 0.332666666666667 -s 3 -d 5 -p cbr -e 1000 -c 2 -i 23 -a 2 -x {1.0 5.0 23 ------- null}
r -t 0.334 -s 1 -d 2 -p cbr -e 1000 -c 2 -i 27 -a 2 -x {1.0 5.0 27 ------- null}
+ -t 0.334 -s 2 -d 3 -p cbr -e 1000 -c 2 -i 27 -a 2 -x {1.0 5.0 27 ------- null}
- -t 0.334 -s 2 -d 3 -p cbr -e 1000 -c 2 -i 27 -a 2 -x {1.0 5.0 27 ------- null}
h -t 0.334 -s 2 -d 3 -p cbr -e 1000 -c 2 -i 27 -a 2 -x {1.0 5.0 -1 ------- null}
r -t 0.338666666666667 -s 2 -d 3 -p cbr -e 1000 -c 2 -i 26 -a 2 -x {1.0 5.0 26 ------- null}
+ -t 0.338666666666667 -s 3 -d 5 -p cbr -e 1000 -c 2 -i 26 -a 2 -x {1.0 5.0 26 ------- null}
- -t 0.338666666666667 -s 3 -d 5 -p cbr -e 1000 -c 2 -i 26 -a 2 -x {1.0 5.0 26 ------- null}
h -t 0.338666666666667 -s 3 -d 5 -p cbr -e 1000 -c 2 -i 26 -a 2 -x {1.0 5.0 -1 ------- null}
+ -t 0.34 -s 1 -d 2 -p cbr -e 1000 -c 2 -i 30 -a 2 -x {1.0 5.0 30 ------- null}
- -t 0.34 -s 1 -d 2 -p cbr -e 1000 -c 2 -i 30 -a 2 -x {1.0 5.0 30 ------- null}
h -t 0.34 -s 1 -d 2 -p cbr -e 1000 -c 2 -i 30 -a 2 -x {1.0 5.0 -1 ------- null}
r -t 0.340666666666667 -s 3 -d 5 -p cbr -e 1000 -c 2 -i 24 -a 2 -x {1.0 5.0 24 ------- null}
r -t 0.342 -s 1 -d 2 -p cbr -e 1000 -c 2 -i 28 -a 2 -x {1.0 5.0 28 ------- null}
+ -t 0.342 -s 2 -d 3 -p cbr -e 1000 -c 2 -i 28 -a 2 -x {1.0 5.0 28 ------- null}
- -t 0.342 -s 2 -d 3 -p cbr -e 1000 -c 2 -i 28 -a 2 -x {1.0 5.0 28 ------- null}
h -t 0.342 -s 2 -d 3 -p cbr -e 1000 -c 2 -i 28 -a 2 -x {1.0 5.0 -1 ------- null}
r -t 0.346666666666667 -s 2 -d 3 -p cbr -e 1000 -c 2 -i 27 -a 2 -x {1.0 5.0 27 ------- null}
+ -t 0.346666666666667 -s 3 -d 5 -p cbr -e 1000 -c 2 -i 27 -a 2 -x {1.0 5.0 27 ------- null}