+ 0.118 2 3 cbr 1000 ------- 2 1.0 5.0 0 0
- 0.118 2 3 cbr 1000 ------- 2 1.0 5.0 0 0
+ 0.126 2 3 cbr 1000 ------- 2 1.0 5.0 1 1
- 0.126 2 3 cbr 1000 ------- 2 1.0 5.0 1 1
r 0.130667 2 3 cbr 1000 ------- 2 1.0 5.0 0 0
+ 0.134 2 3 cbr 1000 ------- 2 1.0 5.0 2 2
- 0.134 2 3 cbr 1000 ------- 2 1.0 5.0 2 2
r 0.138667 2 3 cbr 1000 ------- 2 1.0 5.0 1 1
+ 0.142 2 3 cbr 1000 ------- 2 1.0 5.0 3 3
- 0.142 2 3 cbr 1000 ------- 2 1.0 5.0 3 3
r 0.146667 2 3 cbr 1000 ------- 2 1.0 5.0 2 2
+ 0.15 2 3 cbr 1000 ------- 2 1.0 5.0 4 4
- 0.15 2 3 cbr 1000 ------- 2 1.0 5.0 4 4
r 0.154667 2 3 cbr 1000 ------- 2 1.0 5.0 3 3
+ 0.158 2 3 cbr 1000 ------- 2 1.0 5.0 5 5
- 0.158 2 3 cbr 1000 ------- 2 1.0 5.0 5 5
r 0.162667 2 3 cbr 1000 ------- 2 1.0 5.0 4 4
+ 0.166 2 3 cbr 1000 ------- 2 1.0 5.0 6 6
- 0.166 2 3 cbr 1000 ------- 2 1.0 5.0 6 6
r 0.170667 2 3 cbr 1000 ------- 2 1.0 5.0 5 5
+ 0.174 2 3 cbr 1000 ------- 2 1.0 5.0 7 7
- 0.174 2 3 cbr 1000 ------- 2 1.0 5.0 7 7
r 0.178667 2 3 cbr 1000 ------- 2 1.0 5.0 6 6
+ 0.182 2 3 cbr 1000 ------- 2 1.0 5.0 8 8
- 0.182 2 3 cbr 1000 ------- 2 1.0 5.0 8 8
r 0.186667 2 3 cbr 1000 ------- 2 1.0 5.0 7 7
+ 0.19 2 3 cbr 1000 ------- 2 1.0 5.0 9 9
- 0.19 2 3 cbr 1000 ------- 2 1.0 5.0 9 9
r 0.194667 2 3 cbr 1000 ------- 2 1.0 5.0 8 8
+ 0.198 2 3 cbr 1000 ------- 2 1.0 5.0 10 10
- 0.198 2 3 cbr 1000 ------- 2 1.0 5.0 10 10
r 0.202667 2 3 cbr 1000 ------- 2 1.0 5.0 9 9
+ 0.206 2 3 cbr 1000 ------- 2 1.0 5.0 11 11
- 0.206 2 3 cbr 1000 ------- 2 1.0 5.0 11 11
r 0.210667 2 3 cbr 1000 ------- 2 1.0 5.0 10 10
+ 0.214 2 3 cbr 1000 ------- 2 1.0 5.0 12 12
- 0.214 2 3 cbr 1000 ------- 2 1.0 5.0 12 12
r 0.218667 2 3 cbr 1000 ------- 2 1.0 5.0 11 11
+ 0.222 2 3 cbr 1000 ------- 2 1.0 5.0 13 13
- 0.222 2 3 cbr 1000 ------- 2 1.0 5.0 13 13
r 0.226667 2 3 cbr 1000 ------- 2 1.0 5.0 12 12
+ 0.23 2 3 cbr 1000 ------- 2 1.0 5.0 14 14
- 0.23 2 3 cbr 1000 ------- 2 1.0 5.0 14 14
r 0.234667 2 3 cbr 1000 ------- 2 1.0 5.0 13 13
+ 0.238 2 3 cbr 1000 ------- 2 1.0 5.0 15 15
- 0.238 2 3 cbr 1000 ------- 2 1.0 5.0 15 15
r 0.242667 2 3 cbr 1000 ------- 2 1.0 5.0 14 14
+ 0.246 2 3 cbr 1000 ------- 2 1.0 5.0 16 16
- 0.246 2 3 cbr 1000 ------- 2 1.0 5.0 16 16
r 0.250667 2 3 cbr 1000 ------- 2 1.0 5.0 15 15
+ 0.254 2 3 cbr 1000 ------- 2 1.0 5.0 17 17
- 0.254 2 3 cbr 1000 ------- 2 1.0 5.0 17 17
r 0.258667 2 3 cbr 1000 ------- 2 1.0 5.0 16 16
+ 0.262 2 3 cbr 1000 ------- 2 1.0 5.0 18 18
- 0.262 2 3 cbr 1000 ------- 2 1.0 5.0 18 18
r 0.266667 2 3 cbr 1000 ------- 2 1.0 5.0 17 17
+ 0.27 2 3 cbr 1000 ------- 2 1.0 5.0 19 19
- 0.27 2 3 cbr 1000 ------- 2 1.0 5.0 19 19
r 0.274667 2 3 cbr 1000 ------- 2 1.0 5.0 18 18
+ 0.278 2 3 cbr 1000 ------- 2 1.0 5.0 20 20
- 0.278 2 3 cbr 1000 ------- 2 1.0 5.0 20 20
r 0.282667 2 3 cbr 1000 ------- 2 1.0 5.0 19 19
+ 0.286 2 3 cbr 1000 ------- 2 1.0 5.0 21 21
- 0.286 2 3 cbr 1000 ------- 2 1.0 5.0 21 21
r 0.290667 2 3 cbr 1000 ------- 2 1.0 5.0 20 20
+ 0.294 2 3 cbr 1000 ------- 2 1.0 5.0 22 22
- 0.294 2 3 cbr 1000 ------- 2 1.0 5.0 22 22
r 0.298667 2 3 cbr 1000 ------- 2 1.0 5.0 21 21
+ 0.302 2 3 cbr 1000 ------- 2 1.0 5.0 23 23
- 0.302 2 3 cbr 1000 ------- 2 1.0 5.0 23 23
r 0.306667 2 3 cbr 1000 ------- 2 1.0 5.0 22 22
+ 0.31 2 3 cbr 1000 ------- 2 1.0 5.0 24 24
- 0.31 2 3 cbr 1000 ------- 2 1.0 5.0 24 24
r 0.314667 2 3 cbr 1000 ------- 2 1.0 5.0 23 23
+ 0.318 2 3 cbr 1000 ------- 2 1.0 5.0 25 25
- 0.318 2 3 cbr 1000 ------- 2 1.0 5.0 25 25
r 0.322667 2 3 cbr 1000 ------- 2 1.0 5.0 24 24
+ 0.326 2 3 cbr 1000 ------- 2 1.0 5.0 26 26
- 0.326 2 3 cbr 1000 ------- 2 1.0 5.0 26 26
r 0.330667 2 3 cbr 1000 ------- 2 1.0 5.0 25 25
+ 0.334 2 3 cbr 1000 ------- 2 1.0 5.0 27 27
- 0.334 2 3 cbr 1000 ------- 2 1.0 5.0 27 27
r 0.338667 2 3 cbr 1000 ------- 2 1.0 5.0 26 26
+ 0.342 2 3 cbr 1000 ------- 2 1.0 5.0 28 28
- 0.342 2 3 cbr 1000 ------- 2 1.0 5.0 28 28
r 0.346667 2 3 cbr 1000 ------- 2 1.0 5.0 27 27
+ 0.35 2 3 cbr 1000 ------- 2 1.0 5.0 29 29
- 0.35 2 3 cbr 1000 ------- 2 1.0 5.0 29 29
r 0.354667 2 3 cbr 1000 ------- 2 1.0 5.0 28 28
+ 0.358 2 3 cbr 1000 ------- 2 1.0 5.0 30 30
- 0.358 2 3 cbr 1000 ------- 2 1.0 5.0 30 30
r 0.362667 2 3 cbr 1000 ------- 2 1.0 5.0 29 29
+ 0.366 2 3 cbr 1000 ------- 2 1.0 5.0 31 31
- 0.366 2 3 cbr 1000 ------- 2 1.0 5.0 31 31
r 0.370667 2 3 cbr 1000 ------- 2 1.0 5.0 30 30
+ 0.374 2 3 cbr 1000 ------- 2 1.0 5.0 32 32
- 0.374 2 3 cbr 1000 ------- 2 1.0 5.0 32 32
r 0.378667 2 3 cbr 1000 ------- 2 1.0 5.0 31 31
+ 0.382 2 3 cbr 1000 ------- 2 1.0 5.0 33 33
- 0.382 2 3 cbr 1000 ------- 2 1.0 5.0 33 33
r 0.386667 2 3 cbr 1000 ------- 2 1.0 5.0 32 32
+ 0.39 2 3 cbr 1000 ------- 2 1.0 5.0 34 34
- 0.39 2 3 cbr 1000 ------- 2 1.0 5.0 34 34
r 0.394667 2 3 cbr 1000 ------- 2 1.0 5.0 33 33
+ 0.398 2 3 cbr 1000 ------- 2 1.0 5.0 35 35
- 0.398 2 3 cbr 1000 ------- 2 1.0 5.0 35 35
r 0.402667 2 3 cbr 1000 ------- 2 1.0 5.0 34 34
+ 0.406 2 3 cbr 1000 ------- 2 1.0 5.0 36 36
- 0.406 2 3 cbr 1000 ------- 2 1.0 5.0 36 36
r 0.410667 2 3 cbr 1000 ------- 2 1.0 5.0 35 35
+ 0.414 2 3 cbr 1000 ------- 2 1.0 5.0 37 37
- 0.414 2 3 cbr 1000 ------- 2 1.0 5.0 37 37
r 0.418667 2 3 cbr 1000 ------- 2 1.0 5.0 36 36
+ 0.422 2 3 cbr 1000 ------- 2 1.0 5.0 38 38
- 0.422 2 3 cbr 1000 ------- 2 1.0 5.0 38 38
r 0.426667 2 3 cbr 1000 ------- 2 1.0 5.0 37 37
+ 0.43 2 3 cbr 1000 ------- 2 1.0 5.0 39 39
- 0.43 2 3 cbr 1000 ------- 2 1.0 5.0 39 39
r 0.434667 2 3 cbr 1000 ------- 2 1.0 5.0 38 38
+ 0.438 2 3 cbr 1000 ------- 2 1.0 5.0 40 40
- 0.438 2 3 cbr 1000 ------- 2 1.0 5.0 40 40
r 0.442667 2 3 cbr 1000 ------- 2 1.0 5.0 39 39
+ 0.446 2 3 cbr 1000 ------- 2 1.0 5.0 41 41
- 0.446 2 3 cbr 1000 ------- 2 1.0 5.0 41 41
r 0.450667 2 3 cbr 1000 ------- 2 1.0 5.0 40 40
+ 0.454 2 3 cbr 1000 ------- 2 1.0 5.0 42 42
- 0.454 2 3 cbr 1000 ------- 2 1.0 5.0 42 42
r 0.458667 2 3 cbr 1000 ------- 2 1.0 5.0 41 41
+ 0.462 2 3 cbr 1000 ------- 2 1.0 5.0 43 43
- 0.462 2 3 cbr 1000 ------- 2 1.0 5.0 43 43
r 0.466667 2 3 cbr 1000 ------- 2 1.0 5.0 42 42
+ 0.47 2 3 cbr 1000 ------- 2 1.0 5.0 44 44
- 0.47 2 3 cbr 1000 ------- 2 1.0 5.0 44 44
r 0.474667 2 3 cbr 1000 ------- 2 1.0 5.0 43 43
+ 0.478 2 3 cbr 1000 ------- 2 1.0 5.0 45 45
- 0.478 2 3 cbr 1000 ------- 2 1.0 5.0 45 45
r 0.482667 2 3 cbr 1000 ------- 2 1.0 5.0 44 44
+ 0.486 2 3 cbr 1000 ------- 2 1.0 5.0 46 46
- 0.486 2 3 cbr 1000 ------- 2 1.0 5.0 46 46
r 0.490667 2 3 cbr 1000 ------- 2 1.0 5.0 45 45
+ 0.494 2 3 cbr 1000 ------- 2 1.0 5.0 47 47
- 0.494 2 3 cbr 1000 ------- 2 1.0 5.0 47 47
r 0.498667 2 3 cbr 1000 ------- 2 1.0 5.0 46 46
+ 0.502 2 3 cbr 1000 ------- 2 1.0 5.0 48 48
- 0.502 2 3 cbr 1000 ------- 2 1.0 5.0 48 48
r 0.506667 2 3 cbr 1000 ------- 2 1.0 5.0 47 47
+ 0.51 2 3 cbr 1000 ------- 2 1.0 5.0 49 49
- 0.51 2 3 cbr 1000 ------- 2 1.0 5.0 49 49
r 0.514667 2 3 cbr 1000 ------- 2 1.0 5.0 48 48
+ 0.518 2 3 cbr 1000 ------- 2 1.0 5.0 50 50
- 0.518 2 3 cbr 1000 ------- 2 1.0 5.0 50 50
r 0.522667 2 3 cbr 1000 ------- 2 1.0 5.0 49 49
+ 0.526 2 3 cbr 1000 ------- 2 1.0 5.0 51 51
- 0.526 2 3 cbr 1000 ------- 2 1.0 5.0 51 51
r 0.530667 2 3 cbr 1000 ------- 2 1.0 5.0 50 50
+ 0.534 2 3 cbr 1000 ------- 2 1.0 5.0 52 52
- 0.534 2 3 cbr 1000 ------- 2 1.0 5.0 52 52
r 0.538667 2 3 cbr 1000 ------- 2 1.0 5.0 51 51
+ 0.542 2 3 cbr 1000 ------- 2 1.0 5.0 53 53
- 0.542 2 3 cbr 1000 ------- 2 1.0 5.0 53 53
r 0.546667 2 3 cbr 1000 ------- 2 1.0 5.0 52 52
+ 0.55 2 3 cbr 1000 ------- 2 1.0 5.0 54 54
- 0.55 2 3 cbr 1000 ------- 2 1.0 5.0 54 54
r 0.554667 2 3 cbr 1000 ------- 2 1.0 5.0 53 53
+ 0.558 2 3 cbr 1000 ------- 2 1.0 5.0 55 55
- 0.558 2 3 cbr 1000 ------- 2 1.0 5.0 55 55
r 0.562667 2 3 cbr 1000 ------- 2 1.0 5.0 54 54
+ 0.566 2 3 cbr 1000 ------- 2 1.0 5.0 56 56
- 0.566 2 3 cbr 1000 ------- 2 1.0 5.0 56 56
r 0.570667 2 3 cbr 1000 ------- 2 1.0 5.0 55 55
+ 0.574 2 3 cbr 1000 ------- 2 1.0 5.0 57 57
- 0.574 2 3 cbr 1000 ------- 2 1.0 5.0 57 57
r 0.578667 2 3 cbr 1000 ------- 2 1.0 5.0 56 56
+ 0.582 2 3 cbr 1000 ------- 2 1.0 5.0 58 58
- 0.582 2 3 cbr 1000 ------- 2 1.0 5.0 58 58
r 0.586667 2 3 cbr 1000 ------- 2 1.0 5.0 57 57
+ 0.59 2 3 cbr 1000 ------- 2 1.0 5.0 59 59
- 0.59 2 3 cbr 1000 ------- 2 1.0 5.0 59 59
r 0.594667 2 3 cbr 1000 ------- 2 1.0 5.0 58 58
+ 0.598 2 3 cbr 1000 ------- 2 1.0 5.0 60 60
- 0.598 2 3 cbr 1000 ------- 2 1.0 5.0 60 60
r 0.602667 2 3 cbr 1000 ------- 2 1.0 5.0 59 59
+ 0.606 2 3 cbr 1000 ------- 2 1.0 5.0 61 61
- 0.606 2 3 cbr 1000 ------- 2 1.0 5.0 61 61
r 0.610667 2 3 cbr 1000 ------- 2 1.0 5.0 60 60
+ 0.614 2 3 cbr 1000 ------- 2 1.0 5.0 62 62
- 0.614 2 3 cbr 1000 ------- 2 1.0 5.0 62 62
r 0.618667 2 3 cbr 1000 ------- 2 1.0 5.0 61 61
+ 0.622 2 3 cbr 1000 ------- 2 1.0 5.0 63 63
- 0.622 2 3 cbr 1000 ------- 2 1.0 5.0 63 63
r 0.626667 2 3 cbr 1000 ------- 2 1.0 5.0 62 62
+ 0.63 2 3 cbr 1000 ------- 2 1.0 5.0 64 64
- 0.63 2 3 cbr 1000 ------- 2 1.0 5.0 64 64
r 0.634667 2 3 cbr 1000 ------- 2 1.0 5.0 63 63
+ 0.638 2 3 cbr 1000 ------- 2 1.0 5.0 65 65
- 0.638 2 3 cbr 1000 ------- 2 1.0 5.0 65 65
r 0.642667 2 3 cbr 1000 ------- 2 1.0 5.0 64 64
+ 0.646 2 3 cbr 1000 ------- 2 1.0 5.0 66 66
- 0.646 2 3 cbr 1000 ------- 2 1.0 5.0 66 66
r 0.650667 2 3 cbr 1000 ------- 2 1.0 5.0 65 65
+ 0.654 2 3 cbr 1000 ------- 2 1.0 5.0 67 67
- 0.654 2 3 cbr 1000 ------- 2 1.0 5.0 67 67
r 0.658667 2 3 cbr 1000 ------- 2 1.0 5.0 66 66
+ 0.662 2 3 cbr 1000 ------- 2 1.0 5.0 68 68
- 0.662 2 3 cbr 1000 ------- 2 1.0 5.0 68 68
r 0.666667 2 3 cbr 1000 ------- 2 1.0 5.0 67 67
+ 0.67 2 3 cbr 1000 ------- 2 1.0 5.0 69 69
- 0.67 2 3 cbr 1000 ------- 2 1.0 5.0 69 69
r 0.674667 2 3 cbr 1000 ------- 2 1.0 5.0 68 68
+ 0.678 2 3 cbr 1000 ------- 2 1.0 5.0 70 70
- 0.678 2 3 cbr 1000 ------- 2 1.0 5.0 70 70
r 0.682667 2 3 cbr 1000 ------- 2 1.0 5.0 69 69
+ 0.686 2 3 cbr 1000 ------- 2 1.0 5.0 71 71
- 0.686 2 3 cbr 1000 ------- 2 1.0 5.0 71 71
r 0.690667 2 3 cbr 1000 ------- 2 1.0 5.0 70 70
+ 0.694 2 3 cbr 1000 ------- 2 1.0 5.0 72 72
- 0.694 2 3 cbr 1000 ------- 2 1.0 5.0 72 72
r 0.698667 2 3 cbr 1000 ------- 2 1.0 5.0 71 71
+ 0.702 2 3 cbr 1000 ------- 2 1.0 5.0 73 73
- 0.702 2 3 cbr 1000 ------- 2 1.0 5.0 73 73
r 0.706667 2 3 cbr 1000 ------- 2 1.0 5.0 72 72
+ 0.71 2 3 cbr 1000 ------- 2 1.0 5.0 74 74
- 0.71 2 3 cbr 1000 ------- 2 1.0 5.0 74 74
r 0.714667 2 3 cbr 1000 ------- 2 1.0 5.0 73 73
+ 0.718 2 3 cbr 1000 ------- 2 1.0 5.0 75 75
- 0.718 2 3 cbr 1000 ------- 2 1.0 5.0 75 75
r 0.722667 2 3 cbr 1000 ------- 2 1.0 5.0 74 74
+ 0.726 2 3 cbr 1000 ------- 2 1.0 5.0 76 76
- 0.726 2 3 cbr 1000 ------- 2 1.0 5.0 76 76
r 0.730667 2 3 cbr 1000 ------- 2 1.0 5.0 75 75
+ 0.734 2 3 cbr 1000 ------- 2 1.0 5.0 77 77
- 0.734 2 3 cbr 1000 ------- 2 1.0 5.0 77 77
r 0.738667 2 3 cbr 1000 ------- 2 1.0 5.0 76 76
+ 0.742 2 3 cbr 1000 ------- 2 1.0 5.0 78 78
- 0.742 2 3 cbr 1000 ------- 2 1.0 5.0 78 78
r 0.746667 2 3 cbr 1000 ------- 2 1.0 5.0 77 77
+ 0.75 2 3 cbr 1000 ------- 2 1.0 5.0 79 79
- 0.75 2 3 cbr 1000 ------- 2 1.0 5.0 79 79
r 0.754667 2 3 cbr 1000 ------- 2 1.0 5.0 78 78
+ 0.758 2 3 cbr 1000 ------- 2 1.0 5.0 80 80
- 0.758 2 3 cbr 1000 ------- 2 1.0 5.0 80 80
r 0.762667 2 3 cbr 1000 ------- 2 1.0 5.0 79 79
+ 0.766 2 3 cbr 1000 ------- 2 1.0 5.0 81 81
- 0.766 2 3 cbr 1000 ------- 2 1.0 5.0 81 81
r 0.770667 2 3 cbr 1000 ------- 2 1.0 5.0 80 80
+ 0.774 2 3 cbr 1000 ------- 2 1.0 5.0 82 82
- 0.774 2 3 cbr 1000 ------- 2 1.0 5.0 82 82
r 0.778667 2 3 cbr 1000 ------- 2 1.0 5.0 81 81
+ 0.782 2 3 cbr 1000 ------- 2 1.0 5.0 83 83
- 0.782 2 3 cbr 1000 ------- 2 1.0 5.0 83 83
r 0.786667 2 3 cbr 1000 ------- 2 1.0 5.0 82 82
+ 0.79 2 3 cbr 1000 ------- 2 1.0 5.0 84 84
- 0.79 2 3 cbr 1000 ------- 2 1.0 5.0 84 84
r 0.794667 2 3 cbr 1000 ------- 2 1.0 5.0 83 83
+ 0.798 2 3 cbr 1000 ------- 2 1.0 5.0 85 85
- 0.798 2 3 cbr 1000 ------- 2 1.0 5.0 85 85
r 0.802667 2 3 cbr 1000 ------- 2 1.0 5.0 84 84
+ 0.806 2 3 cbr 1000 ------- 2 1.0 5.0 86 86
- 0.806 2 3 cbr 1000 ------- 2 1.0 5.0 86 86
r 0.810667 2 3 cbr 1000 ------- 2 1.0 5.0 85 85
+ 0.814 2 3 cbr 1000 ------- 2 1.0 5.0 87 87
- 0.814 2 3 cbr 1000 ------- 2 1.0 5.0 87 87
r 0.818667 2 3 cbr 1000 ------- 2 1.0 5.0 86 86
+ 0.822 2 3 cbr 1000 ------- 2 1.0 5.0 88 88
- 0.822 2 3 cbr 1000 ------- 2 1.0 5.0 88 88
r 0.826667 2 3 cbr 1000 ------- 2 1.0 5.0 87 87
+ 0.83 2 3 cbr 1000 ------- 2 1.0 5.0 89 89
- 0.83 2 3 cbr 1000 ------- 2 1.0 5.0 89 89
r 0.834667 2 3 cbr 1000 ------- 2 1.0 5.0 88 88
+ 0.838 2 3 cbr 1000 ------- 2 1.0 5.0 90 90
- 0.838 2 3 cbr 1000 ------- 2 1.0 5.0 90 90
r 0.842667 2 3 cbr 1000 ------- 2 1.0 5.0 89 89
+ 0.846 2 3 cbr 1000 ------- 2 1.0 5.0 91 91
- 0.846 2 3 cbr 1000 ------- 2 1.0 5.0 91 91
r 0.850667 2 3 cbr 1000 ------- 2 1.0 5.0 90 90
+ 0.854 2 3 cbr 1000 ------- 2 1.0 5.0 92 92
- 0.854 2 3 cbr 1000 ------- 2 1.0 5.0 92 92
r 0.858667 2 3 cbr 1000 ------- 2 1.0 5.0 91 91
+ 0.862 2 3 cbr 1000 ------- 2 1.0 5.0 93 93
- 0.862 2 3 cbr 1000 ------- 2 1.0 5.0 93 93
r 0.866667 2 3 cbr 1000 ------- 2 1.0 5.0 92 92
+ 0.87 2 3 cbr 1000 ------- 2 1.0 5.0 94 94
- 0.87 2 3 cbr 1000 ------- 2 1.0 5.0 94 94
r 0.874667 2 3 cbr 1000 ------- 2 1.0 5.0 93 93
+ 0.878 2 3 cbr 1000 ------- 2 1.0 5.0 95 95
- 0.878 2 3 cbr 1000 ------- 2 1.0 5.0 95 95
r 0.882667 2 3 cbr 1000 ------- 2 1.0 5.0 94 94
+ 0.886 2 3 cbr 1000 ------- 2 1.0 5.0 96 96
- 0.886 2 3 cbr 1000 ------- 2 1.0 5.0 96 96
r 0.890667 2 3 cbr 1000 ------- 2 1.0 5.0 95 95
+ 0.894 2 3 cbr 1000 ------- 2 1.0 5.0 97 97
- 0.894 2 3 cbr 1000 ------- 2 1.0 5.0 97 97
r 0.898667 2 3 cbr 1000 ------- 2 1.0 5.0 96 96
+ 0.902 2 3 cbr 1000 ------- 2 1.0 5.0 98 98
- 0.902 2 3 cbr 1000 ------- 2 1.0 5.0 98 98
r 0.906667 2 3 cbr 1000 ------- 2 1.0 5.0 97 97
+ 0.91 2 3 cbr 1000 ------- 2 1.0 5.0 99 99
- 0.91 2 3 cbr 1000 ------- 2 1.0 5.0 99 99
r 0.914667 2 3 cbr 1000 ------- 2 1.0 5.0 98 98
+ 0.918 2 3 cbr 1000 ------- 2 1.0 5.0 100 100
- 0.918 2 3 cbr 1000 ------- 2 1.0 5.0 100 100
r 0.922667 2 3 cbr 1000 ------- 2 1.0 5.0 99 99
+ 0.926 2 3 cbr 1000 ------- 2 1.0 5.0 101 101
- 0.926 2 3 cbr 1000 ------- 2 1.0 5.0 101 101
r 0.930667 2 3 cbr 1000 ------- 2 1.0 5.0 100 100
+ 0.934 2 3 cbr 1000 ------- 2 1.0 5.0 102 102
- 0.934 2 3 cbr 1000 ------- 2 1.0 5.0 102 102
r 0.938667 2 3 cbr 1000 ------- 2 1.0 5.0 101 101
+ 0.942 2 3 cbr 1000 ------- 2 1.0 5.0 103 103
- 0.942 2 3 cbr 1000 ------- 2 1.0 5.0 103 103
r 0.946667 2 3 cbr 1000 ------- 2 1.0 5.0 102 102
+ 0.95 2 3 cbr 1000 ------- 2 1.0 5.0 104 104
- 0.95 2 3 cbr 1000 ------- 2 1.0 5.0 104 104
r 0.954667 2 3 cbr 1000 ------- 2 1.0 5.0 103 103
+ 0.958 2 3 cbr 1000 ------- 2 1.0 5.0 105 105
- 0.958 2 3 cbr 1000 ------- 2 1.0 5.0 105 105
r 0.962667 2 3 cbr 1000 ------- 2 1.0 5.0 104 104
+ 0.966 2 3 cbr 1000 ------- 2 1.0 5.0 106 106
- 0.966 2 3 cbr 1000 ------- 2 1.0 5.0 106 106
r 0.970667 2 3 cbr 1000 ------- 2 1.0 5.0 105 105
+ 0.974 2 3 cbr 1000 ------- 2 1.0 5.0 107 107
- 0.974 2 3 cbr 1000 ------- 2 1.0 5.0 107 107
r 0.978667 2 3 cbr 1000 ------- 2 1.0 5.0 106 106
+ 0.982 2 3 cbr 1000 ------- 2 1.0 5.0 108 108
- 0.982 2 3 cbr 1000 ------- 2 1.0 5.0 108 108
r 0.986667 2 3 cbr 1000 ------- 2 1.0 5.0 107 107
+ 0.99 2 3 cbr 1000 ------- 2 1.0 5.0 109 109
- 0.99 2 3 cbr 1000 ------- 2 1.0 5.0 109 109
r 0.994667 2 3 cbr 1000 ------- 2 1.0 5.0 108 108
+ 0.998 2 3 cbr 1000 ------- 2 1.0 5.0 110 110
- 0.998 2 3 cbr 1000 ------- 2 1.0 5.0 110 110
r 1.002667 2 3 cbr 1000 ------- 2 1.0 5.0 109 109
+ 1.006 2 3 cbr 1000 ------- 2 1.0 5.0 111 111
- 1.006 2 3 cbr 1000 ------- 2 1.0 5.0 111 111
+ 1.01032 2 3 tcp 40 ------- 1 0.0 4.0 0 113
- 1.01032 2 3 tcp 40 ------- 1 0.0 4.0 0 113
r 1.010667 2 3 cbr 1000 ------- 2 1.0 5.0 110 110
+ 1.014 2 3 cbr 1000 ------- 2 1.0 5.0 112 112
- 1.014 2 3 cbr 1000 ------- 2 1.0 5.0 112 112
r 1.018667 2 3 cbr 1000 ------- 2 1.0 5.0 111 111
r 1.020427 2 3 tcp 40 ------- 1 0.0 4.0 0 113
+ 1.022 2 3 cbr 1000 ------- 2 1.0 5.0 113 114
- 1.022 2 3 cbr 1000 ------- 2 1.0 5.0 113 114
r 1.026667 2 3 cbr 1000 ------- 2 1.0 5.0 112 112
+ 1.03 2 3 cbr 1000 ------- 2 1.0 5.0 114 115
- 1.03 2 3 cbr 1000 ------- 2 1.0 5.0 114 115
r 1.034667 2 3 cbr 1000 ------- 2 1.0 5.0 113 114
+ 1.038 2 3 cbr 1000 ------- 2 1.0 5.0 115 116
- 1.038 2 3 cbr 1000 ------- 2 1.0 5.0 115 116
r 1.042667 2 3 cbr 1000 ------- 2 1.0 5.0 114 115
+ 1.046 2 3 cbr 1000 ------- 2 1.0 5.0 116 117
- 1.046 2 3 cbr 1000 ------- 2 1.0 5.0 116 117
r 1.050667 2 3 cbr 1000 ------- 2 1.0 5.0 115 116
+ 1.054 2 3 cbr 1000 ------- 2 1.0 5.0 117 119
- 1.054 2 3 cbr 1000 ------- 2 1.0 5.0 117 119
r 1.058667 2 3 cbr 1000 ------- 2 1.0 5.0 116 117
+ 1.062 2 3 cbr 1000 ------- 2 1.0 5.0 118 120
- 1.062 2 3 cbr 1000 ------- 2 1.0 5.0 118 120
r 1.066667 2 3 cbr 1000 ------- 2 1.0 5.0 117 119
+ 1.07 2 3 cbr 1000 ------- 2 1.0 5.0 119 121
- 1.07 2 3 cbr 1000 ------- 2 1.0 5.0 119 121
r 1.074667 2 3 cbr 1000 ------- 2 1.0 5.0 118 120
+ 1.078 2 3 cbr 1000 ------- 2 1.0 5.0 120 122
- 1.078 2 3 cbr 1000 ------- 2 1.0 5.0 120 122
+ 1.079813 2 3 tcp 1040 ------- 1 0.0 4.0 1 123
- 1.080667 2 3 tcp 1040 ------- 1 0.0 4.0 1 123
r 1.082667 2 3 cbr 1000 ------- 2 1.0 5.0 119 121
+ 1.086 2 3 cbr 1000 ------- 2 1.0 5.0 121 125
- 1.086 2 3 cbr 1000 ------- 2 1.0 5.0 121 125
+ 1.088133 2 3 tcp 1040 ------- 1 0.0 4.0 2 124
- 1.088667 2 3 tcp 1040 ------- 1 0.0 4.0 2 124
r 1.090667 2 3 cbr 1000 ------- 2 1.0 5.0 120 122
r 1.09344 2 3 tcp 1040 ------- 1 0.0 4.0 1 123
+ 1.094 2 3 cbr 1000 ------- 2 1.0 5.0 122 126
- 1.094 2 3 cbr 1000 ------- 2 1.0 5.0 122 126
r 1.098667 2 3 cbr 1000 ------- 2 1.0 5.0 121 125
r 1.10144 2 3 tcp 1040 ------- 1 0.0 4.0 2 124
+ 1.102 2 3 cbr 1000 ------- 2 1.0 5.0 123 127
- 1.102 2 3 cbr 1000 ------- 2 1.0 5.0 123 127
r 1.106667 2 3 cbr 1000 ------- 2 1.0 5.0 122 126
+ 1.11 2 3 cbr 1000 ------- 2 1.0 5.0 124 128
- 1.11 2 3 cbr 1000 ------- 2 1.0 5.0 124 128
r 1.114667 2 3 cbr 1000 ------- 2 1.0 5.0 123 127
+ 1.118 2 3 cbr 1000 ------- 2 1.0 5.0 125 129
- 1.118 2 3 cbr 1000 ------- 2 1.0 5.0 125 129
r 1.122667 2 3 cbr 1000 ------- 2 1.0 5.0 124 128
+ 1.126 2 3 cbr 1000 ------- 2 1.0 5.0 126 130
- 1.126 2 3 cbr 1000 ------- 2 1.0 5.0 126 130
r 1.130667 2 3 cbr 1000 ------- 2 1.0 5.0 125 129
+ 1.134 2 3 cbr 1000 ------- 2 1.0 5.0 127 132
- 1.134 2 3 cbr 1000 ------- 2 1.0 5.0 127 132
r 1.138667 2 3 cbr 1000 ------- 2 1.0 5.0 126 130
+ 1.142 2 3 cbr 1000 ------- 2 1.0 5.0 128 134
- 1.142 2 3 cbr 1000 ------- 2 1.0 5.0 128 134
r 1.146667 2 3 cbr 1000 ------- 2 1.0 5.0 127 132
+ 1.15 2 3 cbr 1000 ------- 2 1.0 5.0 129 135
- 1.15 2 3 cbr 1000 ------- 2 1.0 5.0 129 135
r 1.154667 2 3 cbr 1000 ------- 2 1.0 5.0 128 134
+ 1.158 2 3 cbr 1000 ------- 2 1.0 5.0 130 136
- 1.158 2 3 cbr 1000 ------- 2 1.0 5.0 130 136
+ 1.160827 2 3 tcp 1040 ------- 1 0.0 4.0 3 137
- 1.160827 2 3 tcp 1040 ------- 1 0.0 4.0 3 137
r 1.162667 2 3 cbr 1000 ------- 2 1.0 5.0 129 135
+ 1.166 2 3 cbr 1000 ------- 2 1.0 5.0 131 139
- 1.166 2 3 cbr 1000 ------- 2 1.0 5.0 131 139
+ 1.169147 2 3 tcp 1040 ------- 1 0.0 4.0 4 138
- 1.169147 2 3 tcp 1040 ------- 1 0.0 4.0 4 138
r 1.170667 2 3 cbr 1000 ------- 2 1.0 5.0 130 136
r 1.1736 2 3 tcp 1040 ------- 1 0.0 4.0 3 137
+ 1.174 2 3 cbr 1000 ------- 2 1.0 5.0 132 142
- 1.174 2 3 cbr 1000 ------- 2 1.0 5.0 132 142
+ 1.177467 2 3 tcp 1040 ------- 1 0.0 4.0 5 140
- 1.177467 2 3 tcp 1040 ------- 1 0.0 4.0 5 140
r 1.178667 2 3 cbr 1000 ------- 2 1.0 5.0 131 139
r 1.18192 2 3 tcp 1040 ------- 1 0.0 4.0 4 138
+ 1.182 2 3 cbr 1000 ------- 2 1.0 5.0 133 143
- 1.182 2 3 cbr 1000 ------- 2 1.0 5.0 133 143
+ 1.185787 2 3 tcp 1040 ------- 1 0.0 4.0 6 141
- 1.185787 2 3 tcp 1040 ------- 1 0.0 4.0 6 141
r 1.186667 2 3 cbr 1000 ------- 2 1.0 5.0 132 142
+ 1.19 2 3 cbr 1000 ------- 2 1.0 5.0 134 144
- 1.19 2 3 cbr 1000 ------- 2 1.0 5.0 134 144
r 1.19024 2 3 tcp 1040 ------- 1 0.0 4.0 5 140
r 1.194667 2 3 cbr 1000 ------- 2 1.0 5.0 133 143
+ 1.198 2 3 cbr 1000 ------- 2 1.0 5.0 135 145
- 1.198 2 3 cbr 1000 ------- 2 1.0 5.0 135 145
r 1.19856 2 3 tcp 1040 ------- 1 0.0 4.0 6 141
r 1.202667 2 3 cbr 1000 ------- 2 1.0 5.0 134 144
+ 1.206 2 3 cbr 1000 ------- 2 1.0 5.0 136 146
- 1.206 2 3 cbr 1000 ------- 2 1.0 5.0 136 146
r 1.210667 2 3 cbr 1000 ------- 2 1.0 5.0 135 145
+ 1.214 2 3 cbr 1000 ------- 2 1.0 5.0 137 148
- 1.214 2 3 cbr 1000 ------- 2 1.0 5.0 137 148
r 1.218667 2 3 cbr 1000 ------- 2 1.0 5.0 136 146
+ 1.222 2 3 cbr 1000 ------- 2 1.0 5.0 138 150
- 1.222 2 3 cbr 1000 ------- 2 1.0 5.0 138 150
r 1.226667 2 3 cbr 1000 ------- 2 1.0 5.0 137 148
+ 1.23 2 3 cbr 1000 ------- 2 1.0 5.0 139 152
- 1.23 2 3 cbr 1000 ------- 2 1.0 5.0 139 152
r 1.234667 2 3 cbr 1000 ------- 2 1.0 5.0 138 150
+ 1.238 2 3 cbr 1000 ------- 2 1.0 5.0 140 154
- 1.238 2 3 cbr 1000 ------- 2 1.0 5.0 140 154
+ 1.240987 2 3 tcp 1040 ------- 1 0.0 4.0 7 155
- 1.240987 2 3 tcp 1040 ------- 1 0.0 4.0 7 155
r 1.242667 2 3 cbr 1000 ------- 2 1.0 5.0 139 152
+ 1.246 2 3 cbr 1000 ------- 2 1.0 5.0 141 157
- 1.246 2 3 cbr 1000 ------- 2 1.0 5.0 141 157
+ 1.249307 2 3 tcp 1040 ------- 1 0.0 4.0 8 156
- 1.249307 2 3 tcp 1040 ------- 1 0.0 4.0 8 156
r 1.250667 2 3 cbr 1000 ------- 2 1.0 5.0 140 154
r 1.25376 2 3 tcp 1040 ------- 1 0.0 4.0 7 155
+ 1.254 2 3 cbr 1000 ------- 2 1.0 5.0 142 160
- 1.254 2 3 cbr 1000 ------- 2 1.0 5.0 142 160
+ 1.257627 2 3 tcp 1040 ------- 1 0.0 4.0 9 158
- 1.257627 2 3 tcp 1040 ------- 1 0.0 4.0 9 158
r 1.258667 2 3 cbr 1000 ------- 2 1.0 5.0 141 157
+ 1.262 2 3 cbr 1000 ------- 2 1.0 5.0 143 163
- 1.262 2 3 cbr 1000 ------- 2 1.0 5.0 143 163
r 1.26208 2 3 tcp 1040 ------- 1 0.0 4.0 8 156
+ 1.265947 2 3 tcp 1040 ------- 1 0.0 4.0 10 159
- 1.265947 2 3 tcp 1040 ------- 1 0.0 4.0 10 159
r 1.266667 2 3 cbr 1000 ------- 2 1.0 5.0 142 160
+ 1.27 2 3 cbr 1000 ------- 2 1.0 5.0 144 166
- 1.27 2 3 cbr 1000 ------- 2 1.0 5.0 144 166
r 1.2704 2 3 tcp 1040 ------- 1 0.0 4.0 9 158
+ 1.274267 2 3 tcp 1040 ------- 1 0.0 4.0 11 161
- 1.274267 2 3 tcp 1040 ------- 1 0.0 4.0 11 161
r 1.274667 2 3 cbr 1000 ------- 2 1.0 5.0 143 163
+ 1.278 2 3 cbr 1000 ------- 2 1.0 5.0 145 167
- 1.278 2 3 cbr 1000 ------- 2 1.0 5.0 145 167
r 1.27872 2 3 tcp 1040 ------- 1 0.0 4.0 10 159
+ 1.282587 2 3 tcp 1040 ------- 1 0.0 4.0 12 162
- 1.282587 2 3 tcp 1040 ------- 1 0.0 4.0 12 162
r 1.282667 2 3 cbr 1000 ------- 2 1.0 5.0 144 166
+ 1.286 2 3 cbr 1000 ------- 2 1.0 5.0 146 168
- 1.286 2 3 cbr 1000 ------- 2 1.0 5.0 146 168
r 1.28704 2 3 tcp 1040 ------- 1 0.0 4.0 11 161
r 1.290667 2 3 cbr 1000 ------- 2 1.0 5.0 145 167
+ 1.290907 2 3 tcp 1040 ------- 1 0.0 4.0 13 164
- 1.290907 2 3 tcp 1040 ------- 1 0.0 4.0 13 164
+ 1.294 2 3 cbr 1000 ------- 2 1.0 5.0 147 170
- 1.294 2 3 cbr 1000 ------- 2 1.0 5.0 147 170
r 1.29536 2 3 tcp 1040 ------- 1 0.0 4.0 12 162
r 1.298667 2 3 cbr 1000 ------- 2 1.0 5.0 146 168
+ 1.299227 2 3 tcp 1040 ------- 1 0.0 4.0 14 165
- 1.299227 2 3 tcp 1040 ------- 1 0.0 4.0 14 165
+ 1.302 2 3 cbr 1000 ------- 2 1.0 5.0 148 172
- 1.302 2 3 cbr 1000 ------- 2 1.0 5.0 148 172
r 1.30368 2 3 tcp 1040 ------- 1 0.0 4.0 13 164
r 1.306667 2 3 cbr 1000 ------- 2 1.0 5.0 147 170
+ 1.31 2 3 cbr 1000 ------- 2 1.0 5.0 149 174
- 1.31 2 3 cbr 1000 ------- 2 1.0 5.0 149 174
r 1.312 2 3 tcp 1040 ------- 1 0.0 4.0 14 165
r 1.314667 2 3 cbr 1000 ------- 2 1.0 5.0 148 172
+ 1.318 2 3 cbr 1000 ------- 2 1.0 5.0 150 176
- 1.318 2 3 cbr 1000 ------- 2 1.0 5.0 150 176
+ 1.321147 2 3 tcp 1040 ------- 1 0.0 4.0 15 177
- 1.321147 2 3 tcp 1040 ------- 1 0.0 4.0 15 177
r 1.322667 2 3 cbr 1000 ------- 2 1.0 5.0 149 174
+ 1.326 2 3 cbr 1000 ------- 2 1.0 5.0 151 180
- 1.326 2 3 cbr 1000 ------- 2 1.0 5.0 151 180
+ 1.329467 2 3 tcp 1040 ------- 1 0.0 4.0 16 178
- 1.329467 2 3 tcp 1040 ------- 1 0.0 4.0 16 178
r 1.330667 2 3 cbr 1000 ------- 2 1.0 5.0 150 176
r 1.33392 2 3 tcp 1040 ------- 1 0.0 4.0 15 177
+ 1.334 2 3 cbr 1000 ------- 2 1.0 5.0 152 184
- 1.334 2 3 cbr 1000 ------- 2 1.0 5.0 152 184
+ 1.337787 2 3 tcp 1040 ------- 1 0.0 4.0 17 181
- 1.337787 2 3 tcp 1040 ------- 1 0.0 4.0 17 181
r 1.338667 2 3 cbr 1000 ------- 2 1.0 5.0 151 180
+ 1.342 2 3 cbr 1000 ------- 2 1.0 5.0 153 188
- 1.342 2 3 cbr 1000 ------- 2 1.0 5.0 153 188
r 1.34224 2 3 tcp 1040 ------- 1 0.0 4.0 16 178
+ 1.346107 2 3 tcp 1040 ------- 1 0.0 4.0 18 182
- 1.346107 2 3 tcp 1040 ------- 1 0.0 4.0 18 182
r 1.346667 2 3 cbr 1000 ------- 2 1.0 5.0 152 184
+ 1.35 2 3 cbr 1000 ------- 2 1.0 5.0 154 192
- 1.35 2 3 cbr 1000 ------- 2 1.0 5.0 154 192
r 1.35056 2 3 tcp 1040 ------- 1 0.0 4.0 17 181
+ 1.354427 2 3 tcp 1040 ------- 1 0.0 4.0 19 185
- 1.354427 2 3 tcp 1040 ------- 1 0.0 4.0 19 185
r 1.354667 2 3 cbr 1000 ------- 2 1.0 5.0 153 188
+ 1.358 2 3 cbr 1000 ------- 2 1.0 5.0 155 195
- 1.358 2 3 cbr 1000 ------- 2 1.0 5.0 155 195
r 1.35888 2 3 tcp 1040 ------- 1 0.0 4.0 18 182
r 1.362667 2 3 cbr 1000 ------- 2 1.0 5.0 154 192
+ 1.362747 2 3 tcp 1040 ------- 1 0.0 4.0 20 186
- 1.362747 2 3 tcp 1040 ------- 1 0.0 4.0 20 186
+ 1.366 2 3 cbr 1000 ------- 2 1.0 5.0 156 198
- 1.366 2 3 cbr 1000 ------- 2 1.0 5.0 156 198
r 1.3672 2 3 tcp 1040 ------- 1 0.0 4.0 19 185
r 1.370667 2 3 cbr 1000 ------- 2 1.0 5.0 155 195
+ 1.371067 2 3 tcp 1040 ------- 1 0.0 4.0 21 189
- 1.371067 2 3 tcp 1040 ------- 1 0.0 4.0 21 189
+ 1.374 2 3 cbr 1000 ------- 2 1.0 5.0 157 202
- 1.374 2 3 cbr 1000 ------- 2 1.0 5.0 157 202
r 1.37552 2 3 tcp 1040 ------- 1 0.0 4.0 20 186
r 1.378667 2 3 cbr 1000 ------- 2 1.0 5.0 156 198
+ 1.379387 2 3 tcp 1040 ------- 1 0.0 4.0 22 190
- 1.379387 2 3 tcp 1040 ------- 1 0.0 4.0 22 190
+ 1.382 2 3 cbr 1000 ------- 2 1.0 5.0 158 206
- 1.38216 2 3 cbr 1000 ------- 2 1.0 5.0 158 206
r 1.38384 2 3 tcp 1040 ------- 1 0.0 4.0 21 189
r 1.386667 2 3 cbr 1000 ------- 2 1.0 5.0 157 202
+ 1.387707 2 3 tcp 1040 ------- 1 0.0 4.0 23 193
- 1.387707 2 3 tcp 1040 ------- 1 0.0 4.0 23 193
+ 1.39 2 3 cbr 1000 ------- 2 1.0 5.0 159 208
- 1.39048 2 3 cbr 1000 ------- 2 1.0 5.0 159 208
r 1.39216 2 3 tcp 1040 ------- 1 0.0 4.0 22 190
r 1.394827 2 3 cbr 1000 ------- 2 1.0 5.0 158 206
+ 1.396027 2 3 tcp 1040 ------- 1 0.0 4.0 24 194
- 1.396027 2 3 tcp 1040 ------- 1 0.0 4.0 24 194
+ 1.398 2 3 cbr 1000 ------- 2 1.0 5.0 160 210
- 1.3988 2 3 cbr 1000 ------- 2 1.0 5.0 160 210
r 1.40048 2 3 tcp 1040 ------- 1 0.0 4.0 23 193
r 1.403147 2 3 cbr 1000 ------- 2 1.0 5.0 159 208
+ 1.404347 2 3 tcp 1040 ------- 1 0.0 4.0 25 196
- 1.404347 2 3 tcp 1040 ------- 1 0.0 4.0 25 196
+ 1.406 2 3 cbr 1000 ------- 2 1.0 5.0 161 214
- 1.40712 2 3 cbr 1000 ------- 2 1.0 5.0 161 214
r 1.4088 2 3 tcp 1040 ------- 1 0.0 4.0 24 194
r 1.411467 2 3 cbr 1000 ------- 2 1.0 5.0 160 210
+ 1.412667 2 3 tcp 1040 ------- 1 0.0 4.0 26 197
- 1.412667 2 3 tcp 1040 ------- 1 0.0 4.0 26 197
+ 1.414 2 3 cbr 1000 ------- 2 1.0 5.0 162 218
- 1.41544 2 3 cbr 1000 ------- 2 1.0 5.0 162 218
r 1.41712 2 3 tcp 1040 ------- 1 0.0 4.0 25 196
r 1.419787 2 3 cbr 1000 ------- 2 1.0 5.0 161 214
+ 1.420987 2 3 tcp 1040 ------- 1 0.0 4.0 27 200
- 1.420987 2 3 tcp 1040 ------- 1 0.0 4.0 27 200
+ 1.422 2 3 cbr 1000 ------- 2 1.0 5.0 163 222
- 1.42376 2 3 cbr 1000 ------- 2 1.0 5.0 163 222
r 1.42544 2 3 tcp 1040 ------- 1 0.0 4.0 26 197
r 1.428107 2 3 cbr 1000 ------- 2 1.0 5.0 162 218
+ 1.429307 2 3 tcp 1040 ------- 1 0.0 4.0 28 201
- 1.429307 2 3 tcp 1040 ------- 1 0.0 4.0 28 201
+ 1.43 2 3 cbr 1000 ------- 2 1.0 5.0 164 226
- 1.43208 2 3 cbr 1000 ------- 2 1.0 5.0 164 226
r 1.43376 2 3 tcp 1040 ------- 1 0.0 4.0 27 200
r 1.436427 2 3 cbr 1000 ------- 2 1.0 5.0 163 222
+ 1.437627 2 3 tcp 1040 ------- 1 0.0 4.0 29 204
- 1.437627 2 3 tcp 1040 ------- 1 0.0 4.0 29 204
+ 1.438 2 3 cbr 1000 ------- 2 1.0 5.0 165 229
- 1.4404 2 3 cbr 1000 ------- 2 1.0 5.0 165 229
r 1.44208 2 3 tcp 1040 ------- 1 0.0 4.0 28 201
r 1.444747 2 3 cbr 1000 ------- 2 1.0 5.0 164 226
+ 1.445947 2 3 tcp 1040 ------- 1 0.0 4.0 30 205
- 1.445947 2 3 tcp 1040 ------- 1 0.0 4.0 30 205
+ 1.446 2 3 cbr 1000 ------- 2 1.0 5.0 166 232
- 1.44872 2 3 cbr 1000 ------- 2 1.0 5.0 166 232
r 1.4504 2 3 tcp 1040 ------- 1 0.0 4.0 29 204
r 1.453067 2 3 cbr 1000 ------- 2 1.0 5.0 165 229
+ 1.454 2 3 cbr 1000 ------- 2 1.0 5.0 167 235
- 1.454 2 3 cbr 1000 ------- 2 1.0 5.0 167 235
+ 1.454267 2 3 tcp 1040 ------- 1 0.0 4.0 31 211
- 1.456667 2 3 tcp 1040 ------- 1 0.0 4.0 31 211
r 1.45872 2 3 tcp 1040 ------- 1 0.0 4.0 30 205
r 1.461387 2 3 cbr 1000 ------- 2 1.0 5.0 166 232
+ 1.462 2 3 cbr 1000 ------- 2 1.0 5.0 168 238
- 1.462 2 3 cbr 1000 ------- 2 1.0 5.0 168 238
+ 1.462587 2 3 tcp 1040 ------- 1 0.0 4.0 32 212
- 1.464667 2 3 tcp 1040 ------- 1 0.0 4.0 32 212
r 1.466667 2 3 cbr 1000 ------- 2 1.0 5.0 167 235
r 1.46944 2 3 tcp 1040 ------- 1 0.0 4.0 31 211
+ 1.47 2 3 cbr 1000 ------- 2 1.0 5.0 169 240
- 1.47 2 3 cbr 1000 ------- 2 1.0 5.0 169 240
+ 1.470907 2 3 tcp 1040 ------- 1 0.0 4.0 33 215
- 1.472667 2 3 tcp 1040 ------- 1 0.0 4.0 33 215
r 1.474667 2 3 cbr 1000 ------- 2 1.0 5.0 168 238
r 1.47744 2 3 tcp 1040 ------- 1 0.0 4.0 32 212
+ 1.478 2 3 cbr 1000 ------- 2 1.0 5.0 170 243
- 1.478 2 3 cbr 1000 ------- 2 1.0 5.0 170 243
+ 1.479227 2 3 tcp 1040 ------- 1 0.0 4.0 34 216
- 1.480667 2 3 tcp 1040 ------- 1 0.0 4.0 34 216
r 1.482667 2 3 cbr 1000 ------- 2 1.0 5.0 169 240
r 1.48544 2 3 tcp 1040 ------- 1 0.0 4.0 33 215
+ 1.486 2 3 cbr 1000 ------- 2 1.0 5.0 171 246
- 1.486 2 3 cbr 1000 ------- 2 1.0 5.0 171 246
+ 1.487547 2 3 tcp 1040 ------- 1 0.0 4.0 35 219
- 1.488667 2 3 tcp 1040 ------- 1 0.0 4.0 35 219
r 1.490667 2 3 cbr 1000 ------- 2 1.0 5.0 170 243
r 1.49344 2 3 tcp 1040 ------- 1 0.0 4.0 34 216
+ 1.494 2 3 cbr 1000 ------- 2 1.0 5.0 172 249
- 1.494 2 3 cbr 1000 ------- 2 1.0 5.0 172 249
+ 1.495867 2 3 tcp 1040 ------- 1 0.0 4.0 36 220
- 1.496667 2 3 tcp 1040 ------- 1 0.0 4.0 36 220
r 1.498667 2 3 cbr 1000 ------- 2 1.0 5.0 171 246
r 1.50144 2 3 tcp 1040 ------- 1 0.0 4.0 35 219
+ 1.502 2 3 cbr 1000 ------- 2 1.0 5.0 173 252
- 1.502 2 3 cbr 1000 ------- 2 1.0 5.0 173 252
+ 1.504187 2 3 tcp 1040 ------- 1 0.0 4.0 37 223
- 1.504667 2 3 tcp 1040 ------- 1 0.0 4.0 37 223
r 1.506667 2 3 cbr 1000 ------- 2 1.0 5.0 172 249
r 1.50944 2 3 tcp 1040 ------- 1 0.0 4.0 36 220
+ 1.51 2 3 cbr 1000 ------- 2 1.0 5.0 174 255
- 1.51 2 3 cbr 1000 ------- 2 1.0 5.0 174 255
+ 1.512507 2 3 tcp 1040 ------- 1 0.0 4.0 38 224
- 1.512667 2 3 tcp 1040 ------- 1 0.0 4.0 38 224
r 1.514667 2 3 cbr 1000 ------- 2 1.0 5.0 173 252