+ 0.118 2 3 cbr 1000 ------- 2 1.0 5.0 0 0
- 0.118 2 3 cbr 1000 ------- 2 1.0 5.0 0 0
+ 0.126 2 3 cbr 1000 ------- 2 1.0 5.0 1 1
- 0.126 2 3 cbr 1000 ------- 2 1.0 5.0 1 1
r 0.133333 2 3 cbr 1000 ------- 2 1.0 5.0 0 0
+ 0.134 2 3 cbr 1000 ------- 2 1.0 5.0 2 2
- 0.134 2 3 cbr 1000 ------- 2 1.0 5.0 2 2
r 0.141333 2 3 cbr 1000 ------- 2 1.0 5.0 1 1
+ 0.142 2 3 cbr 1000 ------- 2 1.0 5.0 3 3
- 0.142 2 3 cbr 1000 ------- 2 1.0 5.0 3 3
r 0.149333 2 3 cbr 1000 ------- 2 1.0 5.0 2 2
+ 0.15 2 3 cbr 1000 ------- 2 1.0 5.0 4 4
- 0.15 2 3 cbr 1000 ------- 2 1.0 5.0 4 4
r 0.157333 2 3 cbr 1000 ------- 2 1.0 5.0 3 3
+ 0.158 2 3 cbr 1000 ------- 2 1.0 5.0 5 5
- 0.158 2 3 cbr 1000 ------- 2 1.0 5.0 5 5
r 0.165333 2 3 cbr 1000 ------- 2 1.0 5.0 4 4
+ 0.166 2 3 cbr 1000 ------- 2 1.0 5.0 6 6
- 0.166 2 3 cbr 1000 ------- 2 1.0 5.0 6 6
r 0.173333 2 3 cbr 1000 ------- 2 1.0 5.0 5 5
+ 0.174 2 3 cbr 1000 ------- 2 1.0 5.0 7 7
- 0.174 2 3 cbr 1000 ------- 2 1.0 5.0 7 7
r 0.181333 2 3 cbr 1000 ------- 2 1.0 5.0 6 6
+ 0.182 2 3 cbr 1000 ------- 2 1.0 5.0 8 8
- 0.182 2 3 cbr 1000 ------- 2 1.0 5.0 8 8
r 0.189333 2 3 cbr 1000 ------- 2 1.0 5.0 7 7
+ 0.19 2 3 cbr 1000 ------- 2 1.0 5.0 9 9
- 0.19 2 3 cbr 1000 ------- 2 1.0 5.0 9 9
r 0.197333 2 3 cbr 1000 ------- 2 1.0 5.0 8 8
+ 0.198 2 3 cbr 1000 ------- 2 1.0 5.0 10 10
- 0.198 2 3 cbr 1000 ------- 2 1.0 5.0 10 10
r 0.205333 2 3 cbr 1000 ------- 2 1.0 5.0 9 9
+ 0.206 2 3 cbr 1000 ------- 2 1.0 5.0 11 11
- 0.206 2 3 cbr 1000 ------- 2 1.0 5.0 11 11
r 0.213333 2 3 cbr 1000 ------- 2 1.0 5.0 10 10
+ 0.214 2 3 cbr 1000 ------- 2 1.0 5.0 12 12
- 0.214 2 3 cbr 1000 ------- 2 1.0 5.0 12 12
r 0.221333 2 3 cbr 1000 ------- 2 1.0 5.0 11 11
+ 0.222 2 3 cbr 1000 ------- 2 1.0 5.0 13 13
- 0.222 2 3 cbr 1000 ------- 2 1.0 5.0 13 13
r 0.229333 2 3 cbr 1000 ------- 2 1.0 5.0 12 12
+ 0.23 2 3 cbr 1000 ------- 2 1.0 5.0 14 14
- 0.23 2 3 cbr 1000 ------- 2 1.0 5.0 14 14
r 0.237333 2 3 cbr 1000 ------- 2 1.0 5.0 13 13
+ 0.238 2 3 cbr 1000 ------- 2 1.0 5.0 15 15
- 0.238 2 3 cbr 1000 ------- 2 1.0 5.0 15 15
r 0.245333 2 3 cbr 1000 ------- 2 1.0 5.0 14 14
+ 0.246 2 3 cbr 1000 ------- 2 1.0 5.0 16 16
- 0.246 2 3 cbr 1000 ------- 2 1.0 5.0 16 16
r 0.253333 2 3 cbr 1000 ------- 2 1.0 5.0 15 15
+ 0.254 2 3 cbr 1000 ------- 2 1.0 5.0 17 17
- 0.254 2 3 cbr 1000 ------- 2 1.0 5.0 17 17
r 0.261333 2 3 cbr 1000 ------- 2 1.0 5.0 16 16
+ 0.262 2 3 cbr 1000 ------- 2 1.0 5.0 18 18
- 0.262 2 3 cbr 1000 ------- 2 1.0 5.0 18 18
r 0.269333 2 3 cbr 1000 ------- 2 1.0 5.0 17 17
+ 0.27 2 3 cbr 1000 ------- 2 1.0 5.0 19 19
- 0.27 2 3 cbr 1000 ------- 2 1.0 5.0 19 19
r 0.277333 2 3 cbr 1000 ------- 2 1.0 5.0 18 18
+ 0.278 2 3 cbr 1000 ------- 2 1.0 5.0 20 20
- 0.278 2 3 cbr 1000 ------- 2 1.0 5.0 20 20
r 0.285333 2 3 cbr 1000 ------- 2 1.0 5.0 19 19
+ 0.286 2 3 cbr 1000 ------- 2 1.0 5.0 21 21
- 0.286 2 3 cbr 1000 ------- 2 1.0 5.0 21 21
r 0.293333 2 3 cbr 1000 ------- 2 1.0 5.0 20 20
+ 0.294 2 3 cbr 1000 ------- 2 1.0 5.0 22 22
- 0.294 2 3 cbr 1000 ------- 2 1.0 5.0 22 22
r 0.301333 2 3 cbr 1000 ------- 2 1.0 5.0 21 21
+ 0.302 2 3 cbr 1000 ------- 2 1.0 5.0 23 23
- 0.302 2 3 cbr 1000 ------- 2 1.0 5.0 23 23
r 0.309333 2 3 cbr 1000 ------- 2 1.0 5.0 22 22
+ 0.31 2 3 cbr 1000 ------- 2 1.0 5.0 24 24
- 0.31 2 3 cbr 1000 ------- 2 1.0 5.0 24 24
r 0.317333 2 3 cbr 1000 ------- 2 1.0 5.0 23 23
+ 0.318 2 3 cbr 1000 ------- 2 1.0 5.0 25 25
- 0.318 2 3 cbr 1000 ------- 2 1.0 5.0 25 25
r 0.325333 2 3 cbr 1000 ------- 2 1.0 5.0 24 24
+ 0.326 2 3 cbr 1000 ------- 2 1.0 5.0 26 26
- 0.326 2 3 cbr 1000 ------- 2 1.0 5.0 26 26
r 0.333333 2 3 cbr 1000 ------- 2 1.0 5.0 25 25
+ 0.334 2 3 cbr 1000 ------- 2 1.0 5.0 27 27
- 0.334 2 3 cbr 1000 ------- 2 1.0 5.0 27 27
r 0.341333 2 3 cbr 1000 ------- 2 1.0 5.0 26 26
+ 0.342 2 3 cbr 1000 ------- 2 1.0 5.0 28 28
- 0.342 2 3 cbr 1000 ------- 2 1.0 5.0 28 28
r 0.349333 2 3 cbr 1000 ------- 2 1.0 5.0 27 27
+ 0.35 2 3 cbr 1000 ------- 2 1.0 5.0 29 29
- 0.35 2 3 cbr 1000 ------- 2 1.0 5.0 29 29
r 0.357333 2 3 cbr 1000 ------- 2 1.0 5.0 28 28
+ 0.358 2 3 cbr 1000 ------- 2 1.0 5.0 30 30
- 0.358 2 3 cbr 1000 ------- 2 1.0 5.0 30 30
r 0.365333 2 3 cbr 1000 ------- 2 1.0 5.0 29 29
+ 0.366 2 3 cbr 1000 ------- 2 1.0 5.0 31 31
- 0.366 2 3 cbr 1000 ------- 2 1.0 5.0 31 31
r 0.373333 2 3 cbr 1000 ------- 2 1.0 5.0 30 30
+ 0.374 2 3 cbr 1000 ------- 2 1.0 5.0 32 32
- 0.374 2 3 cbr 1000 ------- 2 1.0 5.0 32 32
r 0.381333 2 3 cbr 1000 ------- 2 1.0 5.0 31 31
+ 0.382 2 3 cbr 1000 ------- 2 1.0 5.0 33 33
- 0.382 2 3 cbr 1000 ------- 2 1.0 5.0 33 33
r 0.389333 2 3 cbr 1000 ------- 2 1.0 5.0 32 32
+ 0.39 2 3 cbr 1000 ------- 2 1.0 5.0 34 34
- 0.39 2 3 cbr 1000 ------- 2 1.0 5.0 34 34
r 0.397333 2 3 cbr 1000 ------- 2 1.0 5.0 33 33
+ 0.398 2 3 cbr 1000 ------- 2 1.0 5.0 35 35
- 0.398 2 3 cbr 1000 ------- 2 1.0 5.0 35 35
r 0.405333 2 3 cbr 1000 ------- 2 1.0 5.0 34 34
+ 0.406 2 3 cbr 1000 ------- 2 1.0 5.0 36 36
- 0.406 2 3 cbr 1000 ------- 2 1.0 5.0 36 36
r 0.413333 2 3 cbr 1000 ------- 2 1.0 5.0 35 35
+ 0.414 2 3 cbr 1000 ------- 2 1.0 5.0 37 37
- 0.414 2 3 cbr 1000 ------- 2 1.0 5.0 37 37
r 0.421333 2 3 cbr 1000 ------- 2 1.0 5.0 36 36
+ 0.422 2 3 cbr 1000 ------- 2 1.0 5.0 38 38
- 0.422 2 3 cbr 1000 ------- 2 1.0 5.0 38 38
r 0.429333 2 3 cbr 1000 ------- 2 1.0 5.0 37 37
+ 0.43 2 3 cbr 1000 ------- 2 1.0 5.0 39 39
- 0.43 2 3 cbr 1000 ------- 2 1.0 5.0 39 39
r 0.437333 2 3 cbr 1000 ------- 2 1.0 5.0 38 38
+ 0.438 2 3 cbr 1000 ------- 2 1.0 5.0 40 40
- 0.438 2 3 cbr 1000 ------- 2 1.0 5.0 40 40
r 0.445333 2 3 cbr 1000 ------- 2 1.0 5.0 39 39
+ 0.446 2 3 cbr 1000 ------- 2 1.0 5.0 41 41
- 0.446 2 3 cbr 1000 ------- 2 1.0 5.0 41 41
r 0.453333 2 3 cbr 1000 ------- 2 1.0 5.0 40 40
+ 0.454 2 3 cbr 1000 ------- 2 1.0 5.0 42 42
- 0.454 2 3 cbr 1000 ------- 2 1.0 5.0 42 42
r 0.461333 2 3 cbr 1000 ------- 2 1.0 5.0 41 41
+ 0.462 2 3 cbr 1000 ------- 2 1.0 5.0 43 43
- 0.462 2 3 cbr 1000 ------- 2 1.0 5.0 43 43
r 0.469333 2 3 cbr 1000 ------- 2 1.0 5.0 42 42
+ 0.47 2 3 cbr 1000 ------- 2 1.0 5.0 44 44
- 0.47 2 3 cbr 1000 ------- 2 1.0 5.0 44 44
r 0.477333 2 3 cbr 1000 ------- 2 1.0 5.0 43 43
+ 0.478 2 3 cbr 1000 ------- 2 1.0 5.0 45 45
- 0.478 2 3 cbr 1000 ------- 2 1.0 5.0 45 45
r 0.485333 2 3 cbr 1000 ------- 2 1.0 5.0 44 44
+ 0.486 2 3 cbr 1000 ------- 2 1.0 5.0 46 46
- 0.486 2 3 cbr 1000 ------- 2 1.0 5.0 46 46
r 0.493333 2 3 cbr 1000 ------- 2 1.0 5.0 45 45
+ 0.494 2 3 cbr 1000 ------- 2 1.0 5.0 47 47
- 0.494 2 3 cbr 1000 ------- 2 1.0 5.0 47 47
r 0.501333 2 3 cbr 1000 ------- 2 1.0 5.0 46 46
+ 0.502 2 3 cbr 1000 ------- 2 1.0 5.0 48 48
- 0.502 2 3 cbr 1000 ------- 2 1.0 5.0 48 48
r 0.509333 2 3 cbr 1000 ------- 2 1.0 5.0 47 47
+ 0.51 2 3 cbr 1000 ------- 2 1.0 5.0 49 49
- 0.51 2 3 cbr 1000 ------- 2 1.0 5.0 49 49
r 0.517333 2 3 cbr 1000 ------- 2 1.0 5.0 48 48
+ 0.518 2 3 cbr 1000 ------- 2 1.0 5.0 50 50
- 0.518 2 3 cbr 1000 ------- 2 1.0 5.0 50 50
r 0.525333 2 3 cbr 1000 ------- 2 1.0 5.0 49 49
+ 0.526 2 3 cbr 1000 ------- 2 1.0 5.0 51 51
- 0.526 2 3 cbr 1000 ------- 2 1.0 5.0 51 51
r 0.533333 2 3 cbr 1000 ------- 2 1.0 5.0 50 50
+ 0.534 2 3 cbr 1000 ------- 2 1.0 5.0 52 52
- 0.534 2 3 cbr 1000 ------- 2 1.0 5.0 52 52
r 0.541333 2 3 cbr 1000 ------- 2 1.0 5.0 51 51
+ 0.542 2 3 cbr 1000 ------- 2 1.0 5.0 53 53
- 0.542 2 3 cbr 1000 ------- 2 1.0 5.0 53 53
r 0.549333 2 3 cbr 1000 ------- 2 1.0 5.0 52 52
+ 0.55 2 3 cbr 1000 ------- 2 1.0 5.0 54 54
- 0.55 2 3 cbr 1000 ------- 2 1.0 5.0 54 54
r 0.557333 2 3 cbr 1000 ------- 2 1.0 5.0 53 53
+ 0.558 2 3 cbr 1000 ------- 2 1.0 5.0 55 55
- 0.558 2 3 cbr 1000 ------- 2 1.0 5.0 55 55
r 0.565333 2 3 cbr 1000 ------- 2 1.0 5.0 54 54
+ 0.566 2 3 cbr 1000 ------- 2 1.0 5.0 56 56
- 0.566 2 3 cbr 1000 ------- 2 1.0 5.0 56 56
r 0.573333 2 3 cbr 1000 ------- 2 1.0 5.0 55 55
+ 0.574 2 3 cbr 1000 ------- 2 1.0 5.0 57 57
- 0.574 2 3 cbr 1000 ------- 2 1.0 5.0 57 57
r 0.581333 2 3 cbr 1000 ------- 2 1.0 5.0 56 56
+ 0.582 2 3 cbr 1000 ------- 2 1.0 5.0 58 58
- 0.582 2 3 cbr 1000 ------- 2 1.0 5.0 58 58
r 0.589333 2 3 cbr 1000 ------- 2 1.0 5.0 57 57
+ 0.59 2 3 cbr 1000 ------- 2 1.0 5.0 59 59
- 0.59 2 3 cbr 1000 ------- 2 1.0 5.0 59 59
r 0.597333 2 3 cbr 1000 ------- 2 1.0 5.0 58 58
+ 0.598 2 3 cbr 1000 ------- 2 1.0 5.0 60 60
- 0.598 2 3 cbr 1000 ------- 2 1.0 5.0 60 60
r 0.605333 2 3 cbr 1000 ------- 2 1.0 5.0 59 59
+ 0.606 2 3 cbr 1000 ------- 2 1.0 5.0 61 61
- 0.606 2 3 cbr 1000 ------- 2 1.0 5.0 61 61
r 0.613333 2 3 cbr 1000 ------- 2 1.0 5.0 60 60
+ 0.614 2 3 cbr 1000 ------- 2 1.0 5.0 62 62
- 0.614 2 3 cbr 1000 ------- 2 1.0 5.0 62 62
r 0.621333 2 3 cbr 1000 ------- 2 1.0 5.0 61 61
+ 0.622 2 3 cbr 1000 ------- 2 1.0 5.0 63 63
- 0.622 2 3 cbr 1000 ------- 2 1.0 5.0 63 63
r 0.629333 2 3 cbr 1000 ------- 2 1.0 5.0 62 62
+ 0.63 2 3 cbr 1000 ------- 2 1.0 5.0 64 64
- 0.63 2 3 cbr 1000 ------- 2 1.0 5.0 64 64
r 0.637333 2 3 cbr 1000 ------- 2 1.0 5.0 63 63
+ 0.638 2 3 cbr 1000 ------- 2 1.0 5.0 65 65
- 0.638 2 3 cbr 1000 ------- 2 1.0 5.0 65 65
r 0.645333 2 3 cbr 1000 ------- 2 1.0 5.0 64 64
+ 0.646 2 3 cbr 1000 ------- 2 1.0 5.0 66 66
- 0.646 2 3 cbr 1000 ------- 2 1.0 5.0 66 66
r 0.653333 2 3 cbr 1000 ------- 2 1.0 5.0 65 65
+ 0.654 2 3 cbr 1000 ------- 2 1.0 5.0 67 67
- 0.654 2 3 cbr 1000 ------- 2 1.0 5.0 67 67
r 0.661333 2 3 cbr 1000 ------- 2 1.0 5.0 66 66
+ 0.662 2 3 cbr 1000 ------- 2 1.0 5.0 68 68
- 0.662 2 3 cbr 1000 ------- 2 1.0 5.0 68 68
r 0.669333 2 3 cbr 1000 ------- 2 1.0 5.0 67 67
+ 0.67 2 3 cbr 1000 ------- 2 1.0 5.0 69 69
- 0.67 2 3 cbr 1000 ------- 2 1.0 5.0 69 69
r 0.677333 2 3 cbr 1000 ------- 2 1.0 5.0 68 68
+ 0.678 2 3 cbr 1000 ------- 2 1.0 5.0 70 70
- 0.678 2 3 cbr 1000 ------- 2 1.0 5.0 70 70
r 0.685333 2 3 cbr 1000 ------- 2 1.0 5.0 69 69
+ 0.686 2 3 cbr 1000 ------- 2 1.0 5.0 71 71
- 0.686 2 3 cbr 1000 ------- 2 1.0 5.0 71 71
r 0.693333 2 3 cbr 1000 ------- 2 1.0 5.0 70 70
+ 0.694 2 3 cbr 1000 ------- 2 1.0 5.0 72 72
- 0.694 2 3 cbr 1000 ------- 2 1.0 5.0 72 72
r 0.701333 2 3 cbr 1000 ------- 2 1.0 5.0 71 71
+ 0.702 2 3 cbr 1000 ------- 2 1.0 5.0 73 73
- 0.702 2 3 cbr 1000 ------- 2 1.0 5.0 73 73
r 0.709333 2 3 cbr 1000 ------- 2 1.0 5.0 72 72
+ 0.71 2 3 cbr 1000 ------- 2 1.0 5.0 74 74
- 0.71 2 3 cbr 1000 ------- 2 1.0 5.0 74 74
r 0.717333 2 3 cbr 1000 ------- 2 1.0 5.0 73 73
+ 0.718 2 3 cbr 1000 ------- 2 1.0 5.0 75 75
- 0.718 2 3 cbr 1000 ------- 2 1.0 5.0 75 75
r 0.725333 2 3 cbr 1000 ------- 2 1.0 5.0 74 74
+ 0.726 2 3 cbr 1000 ------- 2 1.0 5.0 76 76
- 0.726 2 3 cbr 1000 ------- 2 1.0 5.0 76 76
r 0.733333 2 3 cbr 1000 ------- 2 1.0 5.0 75 75
+ 0.734 2 3 cbr 1000 ------- 2 1.0 5.0 77 77
- 0.734 2 3 cbr 1000 ------- 2 1.0 5.0 77 77
r 0.741333 2 3 cbr 1000 ------- 2 1.0 5.0 76 76
+ 0.742 2 3 cbr 1000 ------- 2 1.0 5.0 78 78
- 0.742 2 3 cbr 1000 ------- 2 1.0 5.0 78 78
r 0.749333 2 3 cbr 1000 ------- 2 1.0 5.0 77 77
+ 0.75 2 3 cbr 1000 ------- 2 1.0 5.0 79 79
- 0.75 2 3 cbr 1000 ------- 2 1.0 5.0 79 79
r 0.757333 2 3 cbr 1000 ------- 2 1.0 5.0 78 78
+ 0.758 2 3 cbr 1000 ------- 2 1.0 5.0 80 80
- 0.758 2 3 cbr 1000 ------- 2 1.0 5.0 80 80
r 0.765333 2 3 cbr 1000 ------- 2 1.0 5.0 79 79
+ 0.766 2 3 cbr 1000 ------- 2 1.0 5.0 81 81
- 0.766 2 3 cbr 1000 ------- 2 1.0 5.0 81 81
r 0.773333 2 3 cbr 1000 ------- 2 1.0 5.0 80 80
+ 0.774 2 3 cbr 1000 ------- 2 1.0 5.0 82 82
- 0.774 2 3 cbr 1000 ------- 2 1.0 5.0 82 82
r 0.781333 2 3 cbr 1000 ------- 2 1.0 5.0 81 81
+ 0.782 2 3 cbr 1000 ------- 2 1.0 5.0 83 83
- 0.782 2 3 cbr 1000 ------- 2 1.0 5.0 83 83
r 0.789333 2 3 cbr 1000 ------- 2 1.0 5.0 82 82
+ 0.79 2 3 cbr 1000 ------- 2 1.0 5.0 84 84
- 0.79 2 3 cbr 1000 ------- 2 1.0 5.0 84 84
r 0.797333 2 3 cbr 1000 ------- 2 1.0 5.0 83 83
+ 0.798 2 3 cbr 1000 ------- 2 1.0 5.0 85 85
- 0.798 2 3 cbr 1000 ------- 2 1.0 5.0 85 85
r 0.805333 2 3 cbr 1000 ------- 2 1.0 5.0 84 84
+ 0.806 2 3 cbr 1000 ------- 2 1.0 5.0 86 86
- 0.806 2 3 cbr 1000 ------- 2 1.0 5.0 86 86
r 0.813333 2 3 cbr 1000 ------- 2 1.0 5.0 85 85
+ 0.814 2 3 cbr 1000 ------- 2 1.0 5.0 87 87
- 0.814 2 3 cbr 1000 ------- 2 1.0 5.0 87 87
r 0.821333 2 3 cbr 1000 ------- 2 1.0 5.0 86 86
+ 0.822 2 3 cbr 1000 ------- 2 1.0 5.0 88 88
- 0.822 2 3 cbr 1000 ------- 2 1.0 5.0 88 88
r 0.829333 2 3 cbr 1000 ------- 2 1.0 5.0 87 87
+ 0.83 2 3 cbr 1000 ------- 2 1.0 5.0 89 89
- 0.83 2 3 cbr 1000 ------- 2 1.0 5.0 89 89
r 0.837333 2 3 cbr 1000 ------- 2 1.0 5.0 88 88
+ 0.838 2 3 cbr 1000 ------- 2 1.0 5.0 90 90
- 0.838 2 3 cbr 1000 ------- 2 1.0 5.0 90 90
r 0.845333 2 3 cbr 1000 ------- 2 1.0 5.0 89 89
+ 0.846 2 3 cbr 1000 ------- 2 1.0 5.0 91 91
- 0.846 2 3 cbr 1000 ------- 2 1.0 5.0 91 91
r 0.853333 2 3 cbr 1000 ------- 2 1.0 5.0 90 90
+ 0.854 2 3 cbr 1000 ------- 2 1.0 5.0 92 92
- 0.854 2 3 cbr 1000 ------- 2 1.0 5.0 92 92
r 0.861333 2 3 cbr 1000 ------- 2 1.0 5.0 91 91
+ 0.862 2 3 cbr 1000 ------- 2 1.0 5.0 93 93
- 0.862 2 3 cbr 1000 ------- 2 1.0 5.0 93 93
r 0.869333 2 3 cbr 1000 ------- 2 1.0 5.0 92 92
+ 0.87 2 3 cbr 1000 ------- 2 1.0 5.0 94 94
- 0.87 2 3 cbr 1000 ------- 2 1.0 5.0 94 94
r 0.877333 2 3 cbr 1000 ------- 2 1.0 5.0 93 93
+ 0.878 2 3 cbr 1000 ------- 2 1.0 5.0 95 95
- 0.878 2 3 cbr 1000 ------- 2 1.0 5.0 95 95
r 0.885333 2 3 cbr 1000 ------- 2 1.0 5.0 94 94
+ 0.886 2 3 cbr 1000 ------- 2 1.0 5.0 96 96
- 0.886 2 3 cbr 1000 ------- 2 1.0 5.0 96 96
r 0.893333 2 3 cbr 1000 ------- 2 1.0 5.0 95 95
+ 0.894 2 3 cbr 1000 ------- 2 1.0 5.0 97 97
- 0.894 2 3 cbr 1000 ------- 2 1.0 5.0 97 97
r 0.901333 2 3 cbr 1000 ------- 2 1.0 5.0 96 96
+ 0.902 2 3 cbr 1000 ------- 2 1.0 5.0 98 98
- 0.902 2 3 cbr 1000 ------- 2 1.0 5.0 98 98
r 0.909333 2 3 cbr 1000 ------- 2 1.0 5.0 97 97
+ 0.91 2 3 cbr 1000 ------- 2 1.0 5.0 99 99
- 0.91 2 3 cbr 1000 ------- 2 1.0 5.0 99 99
r 0.917333 2 3 cbr 1000 ------- 2 1.0 5.0 98 98
+ 0.918 2 3 cbr 1000 ------- 2 1.0 5.0 100 100
- 0.918 2 3 cbr 1000 ------- 2 1.0 5.0 100 100
r 0.925333 2 3 cbr 1000 ------- 2 1.0 5.0 99 99
+ 0.926 2 3 cbr 1000 ------- 2 1.0 5.0 101 101
- 0.926 2 3 cbr 1000 ------- 2 1.0 5.0 101 101
r 0.933333 2 3 cbr 1000 ------- 2 1.0 5.0 100 100
+ 0.934 2 3 cbr 1000 ------- 2 1.0 5.0 102 102
- 0.934 2 3 cbr 1000 ------- 2 1.0 5.0 102 102
r 0.941333 2 3 cbr 1000 ------- 2 1.0 5.0 101 101
+ 0.942 2 3 cbr 1000 ------- 2 1.0 5.0 103 103
- 0.942 2 3 cbr 1000 ------- 2 1.0 5.0 103 103
r 0.949333 2 3 cbr 1000 ------- 2 1.0 5.0 102 102
+ 0.95 2 3 cbr 1000 ------- 2 1.0 5.0 104 104
- 0.95 2 3 cbr 1000 ------- 2 1.0 5.0 104 104
r 0.957333 2 3 cbr 1000 ------- 2 1.0 5.0 103 103
+ 0.958 2 3 cbr 1000 ------- 2 1.0 5.0 105 105
- 0.958 2 3 cbr 1000 ------- 2 1.0 5.0 105 105
r 0.965333 2 3 cbr 1000 ------- 2 1.0 5.0 104 104
+ 0.966 2 3 cbr 1000 ------- 2 1.0 5.0 106 106
- 0.966 2 3 cbr 1000 ------- 2 1.0 5.0 106 106
r 0.973333 2 3 cbr 1000 ------- 2 1.0 5.0 105 105
+ 0.974 2 3 cbr 1000 ------- 2 1.0 5.0 107 107
- 0.974 2 3 cbr 1000 ------- 2 1.0 5.0 107 107
r 0.981333 2 3 cbr 1000 ------- 2 1.0 5.0 106 106
+ 0.982 2 3 cbr 1000 ------- 2 1.0 5.0 108 108
- 0.982 2 3 cbr 1000 ------- 2 1.0 5.0 108 108
r 0.989333 2 3 cbr 1000 ------- 2 1.0 5.0 107 107
+ 0.99 2 3 cbr 1000 ------- 2 1.0 5.0 109 109
- 0.99 2 3 cbr 1000 ------- 2 1.0 5.0 109 109
r 0.997333 2 3 cbr 1000 ------- 2 1.0 5.0 108 108
+ 0.998 2 3 cbr 1000 ------- 2 1.0 5.0 110 110
- 0.998 2 3 cbr 1000 ------- 2 1.0 5.0 110 110
r 1.005333 2 3 cbr 1000 ------- 2 1.0 5.0 109 109
+ 1.006 2 3 cbr 1000 ------- 2 1.0 5.0 111 111
- 1.006 2 3 cbr 1000 ------- 2 1.0 5.0 111 111
+ 1.01032 2 3 tcp 40 ------- 1 0.0 4.0 0 113
- 1.011333 2 3 tcp 40 ------- 1 0.0 4.0 0 113
r 1.013333 2 3 cbr 1000 ------- 2 1.0 5.0 110 110
+ 1.014 2 3 cbr 1000 ------- 2 1.0 5.0 112 112
- 1.014 2 3 cbr 1000 ------- 2 1.0 5.0 112 112
r 1.021333 2 3 cbr 1000 ------- 2 1.0 5.0 111 111
r 1.021547 2 3 tcp 40 ------- 1 0.0 4.0 0 113
+ 1.022 2 3 cbr 1000 ------- 2 1.0 5.0 113 114
- 1.022 2 3 cbr 1000 ------- 2 1.0 5.0 113 114
r 1.029333 2 3 cbr 1000 ------- 2 1.0 5.0 112 112
+ 1.03 2 3 cbr 1000 ------- 2 1.0 5.0 114 115
- 1.03 2 3 cbr 1000 ------- 2 1.0 5.0 114 115
r 1.037333 2 3 cbr 1000 ------- 2 1.0 5.0 113 114
+ 1.038 2 3 cbr 1000 ------- 2 1.0 5.0 115 116
- 1.038 2 3 cbr 1000 ------- 2 1.0 5.0 115 116
r 1.045333 2 3 cbr 1000 ------- 2 1.0 5.0 114 115
+ 1.046 2 3 cbr 1000 ------- 2 1.0 5.0 116 117
- 1.046 2 3 cbr 1000 ------- 2 1.0 5.0 116 117
r 1.053333 2 3 cbr 1000 ------- 2 1.0 5.0 115 116
+ 1.054 2 3 cbr 1000 ------- 2 1.0 5.0 117 119
- 1.054 2 3 cbr 1000 ------- 2 1.0 5.0 117 119
r 1.061333 2 3 cbr 1000 ------- 2 1.0 5.0 116 117
+ 1.062 2 3 cbr 1000 ------- 2 1.0 5.0 118 120
- 1.062 2 3 cbr 1000 ------- 2 1.0 5.0 118 120
r 1.069333 2 3 cbr 1000 ------- 2 1.0 5.0 117 119
+ 1.07 2 3 cbr 1000 ------- 2 1.0 5.0 119 121
- 1.07 2 3 cbr 1000 ------- 2 1.0 5.0 119 121
r 1.077333 2 3 cbr 1000 ------- 2 1.0 5.0 118 120
+ 1.078 2 3 cbr 1000 ------- 2 1.0 5.0 120 122
- 1.078 2 3 cbr 1000 ------- 2 1.0 5.0 120 122
+ 1.08104 2 3 tcp 1040 ------- 1 0.0 4.0 1 123
- 1.083333 2 3 tcp 1040 ------- 1 0.0 4.0 1 123
r 1.085333 2 3 cbr 1000 ------- 2 1.0 5.0 119 121
+ 1.086 2 3 cbr 1000 ------- 2 1.0 5.0 121 125
- 1.08888 2 3 cbr 1000 ------- 2 1.0 5.0 121 125
+ 1.08936 2 3 tcp 1040 ------- 1 0.0 4.0 2 124
r 1.093333 2 3 cbr 1000 ------- 2 1.0 5.0 120 122
+ 1.094 2 3 cbr 1000 ------- 2 1.0 5.0 122 126
- 1.094213 2 3 tcp 1040 ------- 1 0.0 4.0 2 124
r 1.09888 2 3 tcp 1040 ------- 1 0.0 4.0 1 123
- 1.09976 2 3 cbr 1000 ------- 2 1.0 5.0 122 126
+ 1.102 2 3 cbr 1000 ------- 2 1.0 5.0 123 127
r 1.104213 2 3 cbr 1000 ------- 2 1.0 5.0 121 125
- 1.105093 2 3 cbr 1000 ------- 2 1.0 5.0 123 127
r 1.10976 2 3 tcp 1040 ------- 1 0.0 4.0 2 124
+ 1.11 2 3 cbr 1000 ------- 2 1.0 5.0 124 128
- 1.110427 2 3 cbr 1000 ------- 2 1.0 5.0 124 128
r 1.115093 2 3 cbr 1000 ------- 2 1.0 5.0 122 126
+ 1.118 2 3 cbr 1000 ------- 2 1.0 5.0 125 129
- 1.118 2 3 cbr 1000 ------- 2 1.0 5.0 125 129
r 1.120427 2 3 cbr 1000 ------- 2 1.0 5.0 123 127
r 1.12576 2 3 cbr 1000 ------- 2 1.0 5.0 124 128
+ 1.126 2 3 cbr 1000 ------- 2 1.0 5.0 126 130
- 1.126 2 3 cbr 1000 ------- 2 1.0 5.0 126 130
r 1.133333 2 3 cbr 1000 ------- 2 1.0 5.0 125 129
+ 1.134 2 3 cbr 1000 ------- 2 1.0 5.0 127 131
- 1.134 2 3 cbr 1000 ------- 2 1.0 5.0 127 131
r 1.141333 2 3 cbr 1000 ------- 2 1.0 5.0 126 130
+ 1.142 2 3 cbr 1000 ------- 2 1.0 5.0 128 133
- 1.142 2 3 cbr 1000 ------- 2 1.0 5.0 128 133
r 1.149333 2 3 cbr 1000 ------- 2 1.0 5.0 127 131
+ 1.15 2 3 cbr 1000 ------- 2 1.0 5.0 129 135
- 1.15 2 3 cbr 1000 ------- 2 1.0 5.0 129 135
r 1.157333 2 3 cbr 1000 ------- 2 1.0 5.0 128 133
+ 1.158 2 3 cbr 1000 ------- 2 1.0 5.0 130 136
- 1.158 2 3 cbr 1000 ------- 2 1.0 5.0 130 136
r 1.165333 2 3 cbr 1000 ------- 2 1.0 5.0 129 135
+ 1.166 2 3 cbr 1000 ------- 2 1.0 5.0 131 137
- 1.166 2 3 cbr 1000 ------- 2 1.0 5.0 131 137
+ 1.166373 2 3 tcp 1040 ------- 1 0.0 4.0 3 138
- 1.171333 2 3 tcp 1040 ------- 1 0.0 4.0 3 138
r 1.173333 2 3 cbr 1000 ------- 2 1.0 5.0 130 136
+ 1.174 2 3 cbr 1000 ------- 2 1.0 5.0 132 140
+ 1.174693 2 3 tcp 1040 ------- 1 0.0 4.0 4 139
- 1.17688 2 3 cbr 1000 ------- 2 1.0 5.0 132 140
r 1.181333 2 3 cbr 1000 ------- 2 1.0 5.0 131 137
+ 1.182 2 3 cbr 1000 ------- 2 1.0 5.0 133 143
- 1.182213 2 3 tcp 1040 ------- 1 0.0 4.0 4 139
+ 1.183013 2 3 tcp 1040 ------- 1 0.0 4.0 5 141
r 1.18688 2 3 tcp 1040 ------- 1 0.0 4.0 3 138
- 1.18776 2 3 cbr 1000 ------- 2 1.0 5.0 133 143
+ 1.19 2 3 cbr 1000 ------- 2 1.0 5.0 134 144
+ 1.191333 2 3 tcp 1040 ------- 1 0.0 4.0 6 142
r 1.192213 2 3 cbr 1000 ------- 2 1.0 5.0 132 140
- 1.193093 2 3 tcp 1040 ------- 1 0.0 4.0 5 141
r 1.19776 2 3 tcp 1040 ------- 1 0.0 4.0 4 139
+ 1.198 2 3 cbr 1000 ------- 2 1.0 5.0 135 145
- 1.19864 2 3 cbr 1000 ------- 2 1.0 5.0 134 144
r 1.203093 2 3 cbr 1000 ------- 2 1.0 5.0 133 143
- 1.203973 2 3 tcp 1040 ------- 1 0.0 4.0 6 142
+ 1.206 2 3 cbr 1000 ------- 2 1.0 5.0 136 146
r 1.20864 2 3 tcp 1040 ------- 1 0.0 4.0 5 141
- 1.20952 2 3 cbr 1000 ------- 2 1.0 5.0 135 145
r 1.213973 2 3 cbr 1000 ------- 2 1.0 5.0 134 144
+ 1.214 2 3 cbr 1000 ------- 2 1.0 5.0 137 147
- 1.214853 2 3 cbr 1000 ------- 2 1.0 5.0 136 146
r 1.21952 2 3 tcp 1040 ------- 1 0.0 4.0 6 142
- 1.220187 2 3 cbr 1000 ------- 2 1.0 5.0 137 147
+ 1.222 2 3 cbr 1000 ------- 2 1.0 5.0 138 148
r 1.224853 2 3 cbr 1000 ------- 2 1.0 5.0 135 145
- 1.22552 2 3 cbr 1000 ------- 2 1.0 5.0 138 148
+ 1.23 2 3 cbr 1000 ------- 2 1.0 5.0 139 150
r 1.230187 2 3 cbr 1000 ------- 2 1.0 5.0 136 146
- 1.230853 2 3 cbr 1000 ------- 2 1.0 5.0 139 150
r 1.23552 2 3 cbr 1000 ------- 2 1.0 5.0 137 147
+ 1.238 2 3 cbr 1000 ------- 2 1.0 5.0 140 152
- 1.238 2 3 cbr 1000 ------- 2 1.0 5.0 140 152
r 1.240853 2 3 cbr 1000 ------- 2 1.0 5.0 138 148
+ 1.246 2 3 cbr 1000 ------- 2 1.0 5.0 141 154
- 1.246 2 3 cbr 1000 ------- 2 1.0 5.0 141 154
r 1.246187 2 3 cbr 1000 ------- 2 1.0 5.0 139 150
r 1.253333 2 3 cbr 1000 ------- 2 1.0 5.0 140 152
+ 1.254 2 3 cbr 1000 ------- 2 1.0 5.0 142 155
- 1.254 2 3 cbr 1000 ------- 2 1.0 5.0 142 155
+ 1.254373 2 3 tcp 1040 ------- 1 0.0 4.0 7 156
- 1.259333 2 3 tcp 1040 ------- 1 0.0 4.0 7 156
r 1.261333 2 3 cbr 1000 ------- 2 1.0 5.0 141 154
+ 1.262 2 3 cbr 1000 ------- 2 1.0 5.0 143 159
+ 1.262693 2 3 tcp 1040 ------- 1 0.0 4.0 8 157
- 1.26488 2 3 cbr 1000 ------- 2 1.0 5.0 143 159
r 1.269333 2 3 cbr 1000 ------- 2 1.0 5.0 142 155
+ 1.27 2 3 cbr 1000 ------- 2 1.0 5.0 144 162
- 1.270213 2 3 tcp 1040 ------- 1 0.0 4.0 8 157
+ 1.271013 2 3 tcp 1040 ------- 1 0.0 4.0 9 160
r 1.27488 2 3 tcp 1040 ------- 1 0.0 4.0 7 156
- 1.27576 2 3 cbr 1000 ------- 2 1.0 5.0 144 162
+ 1.278 2 3 cbr 1000 ------- 2 1.0 5.0 145 165
+ 1.279333 2 3 tcp 1040 ------- 1 0.0 4.0 10 161
r 1.280213 2 3 cbr 1000 ------- 2 1.0 5.0 143 159
- 1.281093 2 3 tcp 1040 ------- 1 0.0 4.0 9 160
r 1.28576 2 3 tcp 1040 ------- 1 0.0 4.0 8 157
+ 1.286 2 3 cbr 1000 ------- 2 1.0 5.0 146 166
- 1.28664 2 3 cbr 1000 ------- 2 1.0 5.0 145 165
+ 1.287653 2 3 tcp 1040 ------- 1 0.0 4.0 11 163
r 1.291093 2 3 cbr 1000 ------- 2 1.0 5.0 144 162
- 1.291973 2 3 tcp 1040 ------- 1 0.0 4.0 10 161
+ 1.294 2 3 cbr 1000 ------- 2 1.0 5.0 147 169
+ 1.295973 2 3 tcp 1040 ------- 1 0.0 4.0 12 164
r 1.29664 2 3 tcp 1040 ------- 1 0.0 4.0 9 160
- 1.29752 2 3 cbr 1000 ------- 2 1.0 5.0 146 166
r 1.301973 2 3 cbr 1000 ------- 2 1.0 5.0 145 165
+ 1.302 2 3 cbr 1000 ------- 2 1.0 5.0 148 170
- 1.302853 2 3 tcp 1040 ------- 1 0.0 4.0 11 163
+ 1.304293 2 3 tcp 1040 ------- 1 0.0 4.0 13 167
r 1.30752 2 3 tcp 1040 ------- 1 0.0 4.0 10 161
- 1.3084 2 3 cbr 1000 ------- 2 1.0 5.0 147 169
+ 1.31 2 3 cbr 1000 ------- 2 1.0 5.0 149 171
+ 1.312613 2 3 tcp 1040 ------- 1 0.0 4.0 14 168
r 1.312853 2 3 cbr 1000 ------- 2 1.0 5.0 146 166
- 1.313733 2 3 tcp 1040 ------- 1 0.0 4.0 12 164
+ 1.318 2 3 cbr 1000 ------- 2 1.0 5.0 150 173
r 1.3184 2 3 tcp 1040 ------- 1 0.0 4.0 11 163
- 1.31928 2 3 cbr 1000 ------- 2 1.0 5.0 148 170
r 1.323733 2 3 cbr 1000 ------- 2 1.0 5.0 147 169
- 1.324613 2 3 tcp 1040 ------- 1 0.0 4.0 13 167
+ 1.326 2 3 cbr 1000 ------- 2 1.0 5.0 151 175
r 1.32928 2 3 tcp 1040 ------- 1 0.0 4.0 12 164
- 1.33016 2 3 cbr 1000 ------- 2 1.0 5.0 149 171
+ 1.334 2 3 cbr 1000 ------- 2 1.0 5.0 152 177
r 1.334613 2 3 cbr 1000 ------- 2 1.0 5.0 148 170
- 1.335493 2 3 tcp 1040 ------- 1 0.0 4.0 14 168
r 1.34016 2 3 tcp 1040 ------- 1 0.0 4.0 13 167
- 1.34104 2 3 cbr 1000 ------- 2 1.0 5.0 150 173
+ 1.342 2 3 cbr 1000 ------- 2 1.0 5.0 153 178
+ 1.342373 2 3 tcp 1040 ------- 1 0.0 4.0 15 179
r 1.345493 2 3 cbr 1000 ------- 2 1.0 5.0 149 171
- 1.346373 2 3 cbr 1000 ------- 2 1.0 5.0 151 175
+ 1.35 2 3 cbr 1000 ------- 2 1.0 5.0 154 182
+ 1.350693 2 3 tcp 1040 ------- 1 0.0 4.0 16 180
r 1.35104 2 3 tcp 1040 ------- 1 0.0 4.0 14 168
- 1.351707 2 3 cbr 1000 ------- 2 1.0 5.0 152 177
r 1.356373 2 3 cbr 1000 ------- 2 1.0 5.0 150 173
- 1.35704 2 3 cbr 1000 ------- 2 1.0 5.0 153 178
+ 1.358 2 3 cbr 1000 ------- 2 1.0 5.0 155 186
+ 1.359013 2 3 tcp 1040 ------- 1 0.0 4.0 17 183
r 1.361707 2 3 cbr 1000 ------- 2 1.0 5.0 151 175
- 1.362373 2 3 tcp 1040 ------- 1 0.0 4.0 15 179
+ 1.366 2 3 cbr 1000 ------- 2 1.0 5.0 156 190
r 1.36704 2 3 cbr 1000 ------- 2 1.0 5.0 152 177
+ 1.367333 2 3 tcp 1040 ------- 1 0.0 4.0 18 184
- 1.36792 2 3 cbr 1000 ------- 2 1.0 5.0 154 182
r 1.372373 2 3 cbr 1000 ------- 2 1.0 5.0 153 178
- 1.373253 2 3 tcp 1040 ------- 1 0.0 4.0 16 180
+ 1.374 2 3 cbr 1000 ------- 2 1.0 5.0 157 191
+ 1.375653 2 3 tcp 1040 ------- 1 0.0 4.0 19 187
r 1.37792 2 3 tcp 1040 ------- 1 0.0 4.0 15 179
- 1.3788 2 3 cbr 1000 ------- 2 1.0 5.0 155 186
+ 1.382 2 3 cbr 1000 ------- 2 1.0 5.0 158 195
r 1.383253 2 3 cbr 1000 ------- 2 1.0 5.0 154 182
+ 1.383973 2 3 tcp 1040 ------- 1 0.0 4.0 20 188
- 1.384133 2 3 tcp 1040 ------- 1 0.0 4.0 17 183
r 1.3888 2 3 tcp 1040 ------- 1 0.0 4.0 16 180
- 1.38968 2 3 cbr 1000 ------- 2 1.0 5.0 156 190
+ 1.39 2 3 cbr 1000 ------- 2 1.0 5.0 159 199
+ 1.392293 2 3 tcp 1040 ------- 1 0.0 4.0 21 192
r 1.394133 2 3 cbr 1000 ------- 2 1.0 5.0 155 186
- 1.395013 2 3 tcp 1040 ------- 1 0.0 4.0 18 184
+ 1.398 2 3 cbr 1000 ------- 2 1.0 5.0 160 202
r 1.39968 2 3 tcp 1040 ------- 1 0.0 4.0 17 183
- 1.40056 2 3 cbr 1000 ------- 2 1.0 5.0 157 191
+ 1.400613 2 3 tcp 1040 ------- 1 0.0 4.0 22 193
r 1.405013 2 3 cbr 1000 ------- 2 1.0 5.0 156 190
- 1.405893 2 3 tcp 1040 ------- 1 0.0 4.0 19 187
+ 1.406 2 3 cbr 1000 ------- 2 1.0 5.0 161 203
+ 1.408933 2 3 tcp 1040 ------- 1 0.0 4.0 23 196
r 1.41056 2 3 tcp 1040 ------- 1 0.0 4.0 18 184
- 1.41144 2 3 cbr 1000 ------- 2 1.0 5.0 158 195
+ 1.414 2 3 cbr 1000 ------- 2 1.0 5.0 162 206
r 1.415893 2 3 cbr 1000 ------- 2 1.0 5.0 157 191
- 1.416773 2 3 tcp 1040 ------- 1 0.0 4.0 20 188
+ 1.417253 2 3 tcp 1040 ------- 1 0.0 4.0 24 197
r 1.42144 2 3 tcp 1040 ------- 1 0.0 4.0 19 187
+ 1.422 2 3 cbr 1000 ------- 2 1.0 5.0 163 210
- 1.42232 2 3 cbr 1000 ------- 2 1.0 5.0 159 199
+ 1.425573 2 3 tcp 1040 ------- 1 0.0 4.0 25 200
r 1.426773 2 3 cbr 1000 ------- 2 1.0 5.0 158 195
- 1.427653 2 3 tcp 1040 ------- 1 0.0 4.0 21 192
+ 1.43 2 3 cbr 1000 ------- 2 1.0 5.0 164 212
r 1.43232 2 3 tcp 1040 ------- 1 0.0 4.0 20 188
- 1.4332 2 3 cbr 1000 ------- 2 1.0 5.0 160 202
+ 1.433893 2 3 tcp 1040 ------- 1 0.0 4.0 26 201
r 1.437653 2 3 cbr 1000 ------- 2 1.0 5.0 159 199
+ 1.438 2 3 cbr 1000 ------- 2 1.0 5.0 165 214
- 1.438533 2 3 tcp 1040 ------- 1 0.0 4.0 22 193
+ 1.442213 2 3 tcp 1040 ------- 1 0.0 4.0 27 204
r 1.4432 2 3 tcp 1040 ------- 1 0.0 4.0 21 192
- 1.44408 2 3 cbr 1000 ------- 2 1.0 5.0 161 203
+ 1.446 2 3 cbr 1000 ------- 2 1.0 5.0 166 217
r 1.448533 2 3 cbr 1000 ------- 2 1.0 5.0 160 202
- 1.449413 2 3 tcp 1040 ------- 1 0.0 4.0 23 196
+ 1.450533 2 3 tcp 1040 ------- 1 0.0 4.0 28 205
+ 1.454 2 3 cbr 1000 ------- 2 1.0 5.0 167 219
r 1.45408 2 3 tcp 1040 ------- 1 0.0 4.0 22 193
- 1.45496 2 3 cbr 1000 ------- 2 1.0 5.0 162 206
+ 1.458853 2 3 tcp 1040 ------- 1 0.0 4.0 29 208
r 1.459413 2 3 cbr 1000 ------- 2 1.0 5.0 161 203
- 1.460293 2 3 tcp 1040 ------- 1 0.0 4.0 24 197
+ 1.462 2 3 cbr 1000 ------- 2 1.0 5.0 168 223
r 1.46496 2 3 tcp 1040 ------- 1 0.0 4.0 23 196
- 1.46584 2 3 cbr 1000 ------- 2 1.0 5.0 163 210
+ 1.467173 2 3 tcp 1040 ------- 1 0.0 4.0 30 209
+ 1.47 2 3 cbr 1000 ------- 2 1.0 5.0 169 227
r 1.470293 2 3 cbr 1000 ------- 2 1.0 5.0 162 206
- 1.471173 2 3 tcp 1040 ------- 1 0.0 4.0 25 200
+ 1.475493 2 3 tcp 1040 ------- 1 0.0 4.0 31 215
r 1.47584 2 3 tcp 1040 ------- 1 0.0 4.0 24 197
- 1.47672 2 3 cbr 1000 ------- 2 1.0 5.0 164 212
+ 1.478 2 3 cbr 1000 ------- 2 1.0 5.0 170 230
r 1.481173 2 3 cbr 1000 ------- 2 1.0 5.0 163 210
- 1.482053 2 3 tcp 1040 ------- 1 0.0 4.0 26 201
+ 1.483813 2 3 tcp 1040 ------- 1 0.0 4.0 32 216
+ 1.486 2 3 cbr 1000 ------- 2 1.0 5.0 171 232
r 1.48672 2 3 tcp 1040 ------- 1 0.0 4.0 25 200
- 1.4876 2 3 cbr 1000 ------- 2 1.0 5.0 165 214
r 1.492053 2 3 cbr 1000 ------- 2 1.0 5.0 164 212
+ 1.492133 2 3 tcp 1040 ------- 1 0.0 4.0 33 220
- 1.492933 2 3 tcp 1040 ------- 1 0.0 4.0 27 204
+ 1.494 2 3 cbr 1000 ------- 2 1.0 5.0 172 235
r 1.4976 2 3 tcp 1040 ------- 1 0.0 4.0 26 201
- 1.49848 2 3 cbr 1000 ------- 2 1.0 5.0 166 217
+ 1.500453 2 3 tcp 1040 ------- 1 0.0 4.0 34 221
+ 1.502 2 3 cbr 1000 ------- 2 1.0 5.0 173 238
r 1.502933 2 3 cbr 1000 ------- 2 1.0 5.0 165 214
- 1.503813 2 3 tcp 1040 ------- 1 0.0 4.0 28 205
r 1.50848 2 3 tcp 1040 ------- 1 0.0 4.0 27 204
+ 1.508773 2 3 tcp 1040 ------- 1 0.0 4.0 35 224
- 1.50936 2 3 cbr 1000 ------- 2 1.0 5.0 167 219
+ 1.51 2 3 cbr 1000 ------- 2 1.0 5.0 174 239
r 1.513813 2 3 cbr 1000 ------- 2 1.0 5.0 166 217
- 1.514693 2 3 tcp 1040 ------- 1 0.0 4.0 29 208
+ 1.517093 2 3 tcp 1040 ------- 1 0.0 4.0 36 225
+ 1.518 2 3 cbr 1000 ------- 2 1.0 5.0 175 242
r 1.51936 2 3 tcp 1040 ------- 1 0.0 4.0 28 205
- 1.52024 2 3 cbr 1000 ------- 2 1.0 5.0 168 223
r 1.524693 2 3 cbr 1000 ------- 2 1.0 5.0 167 219
+ 1.525413 2 3 tcp 1040 ------- 1 0.0 4.0 37 228
- 1.525573 2 3 tcp 1040 ------- 1 0.0 4.0 30 209
+ 1.526 2 3 cbr 1000 ------- 2 1.0 5.0 176 245
r 1.53024 2 3 tcp 1040 ------- 1 0.0 4.0 29 208
- 1.53112 2 3 cbr 1000 ------- 2 1.0 5.0 169 227
+ 1.533733 2 3 tcp 1040 ------- 1 0.0 4.0 38 229
+ 1.534 2 3 cbr 1000 ------- 2 1.0 5.0 177 248
r 1.535573 2 3 cbr 1000 ------- 2 1.0 5.0 168 223
- 1.536453 2 3 tcp 1040 ------- 1 0.0 4.0 31 215
r 1.54112 2 3 tcp 1040 ------- 1 0.0 4.0 30 209
+ 1.542 2 3 cbr 1000 ------- 2 1.0 5.0 178 249
- 1.542 2 3 cbr 1000 ------- 2 1.0 5.0 170 230
+ 1.542053 2 3 tcp 1040 ------- 1 0.0 4.0 39 233
r 1.546453 2 3 cbr 1000 ------- 2 1.0 5.0 169 227
- 1.547333 2 3 tcp 1040 ------- 1 0.0 4.0 32 216
+ 1.55 2 3 cbr 1000 ------- 2 1.0 5.0 179 252
+ 1.550373 2 3 tcp 1040 ------- 1 0.0 4.0 40 236
r 1.552 2 3 tcp 1040 ------- 1 0.0 4.0 31 215
- 1.55288 2 3 cbr 1000 ------- 2 1.0 5.0 171 232
r 1.557333 2 3 cbr 1000 ------- 2 1.0 5.0 170 230
+ 1.558 2 3 cbr 1000 ------- 2 1.0 5.0 180 255
- 1.558213 2 3 tcp 1040 ------- 1 0.0 4.0 33 220
+ 1.558693 2 3 tcp 1040 ------- 1 0.0 4.0 41 240
r 1.56288 2 3 tcp 1040 ------- 1 0.0 4.0 32 216
- 1.56376 2 3 cbr 1000 ------- 2 1.0 5.0 172 235
+ 1.566 2 3 cbr 1000 ------- 2 1.0 5.0 181 257
+ 1.567013 2 3 tcp 1040 ------- 1 0.0 4.0 42 243
r 1.568213 2 3 cbr 1000 ------- 2 1.0 5.0 171 232