+ 0.118 2 3 cbr 1000 ------- 2 1.0 5.0 0 0
- 0.118 2 3 cbr 1000 ------- 2 1.0 5.0 0 0
+ 0.126 2 3 cbr 1000 ------- 2 1.0 5.0 1 1
+ 0.134 2 3 cbr 1000 ------- 2 1.0 5.0 2 2
- 0.134 2 3 cbr 1000 ------- 2 1.0 5.0 1 1
+ 0.142 2 3 cbr 1000 ------- 2 1.0 5.0 3 3
r 0.144 2 3 cbr 1000 ------- 2 1.0 5.0 0 0
+ 0.15 2 3 cbr 1000 ------- 2 1.0 5.0 4 4
- 0.15 2 3 cbr 1000 ------- 2 1.0 5.0 2 2
+ 0.158 2 3 cbr 1000 ------- 2 1.0 5.0 5 5
r 0.16 2 3 cbr 1000 ------- 2 1.0 5.0 1 1
+ 0.166 2 3 cbr 1000 ------- 2 1.0 5.0 6 6
- 0.166 2 3 cbr 1000 ------- 2 1.0 5.0 3 3
+ 0.174 2 3 cbr 1000 ------- 2 1.0 5.0 7 7
r 0.176 2 3 cbr 1000 ------- 2 1.0 5.0 2 2
+ 0.182 2 3 cbr 1000 ------- 2 1.0 5.0 8 8
- 0.182 2 3 cbr 1000 ------- 2 1.0 5.0 4 4
+ 0.19 2 3 cbr 1000 ------- 2 1.0 5.0 9 9
r 0.192 2 3 cbr 1000 ------- 2 1.0 5.0 3 3
+ 0.198 2 3 cbr 1000 ------- 2 1.0 5.0 10 10
- 0.198 2 3 cbr 1000 ------- 2 1.0 5.0 5 5
+ 0.206 2 3 cbr 1000 ------- 2 1.0 5.0 11 11
r 0.208 2 3 cbr 1000 ------- 2 1.0 5.0 4 4
+ 0.214 2 3 cbr 1000 ------- 2 1.0 5.0 12 12
- 0.214 2 3 cbr 1000 ------- 2 1.0 5.0 6 6
+ 0.222 2 3 cbr 1000 ------- 2 1.0 5.0 13 13
r 0.224 2 3 cbr 1000 ------- 2 1.0 5.0 5 5
+ 0.23 2 3 cbr 1000 ------- 2 1.0 5.0 14 14
- 0.23 2 3 cbr 1000 ------- 2 1.0 5.0 7 7
+ 0.238 2 3 cbr 1000 ------- 2 1.0 5.0 15 15
r 0.24 2 3 cbr 1000 ------- 2 1.0 5.0 6 6
+ 0.246 2 3 cbr 1000 ------- 2 1.0 5.0 16 16
- 0.246 2 3 cbr 1000 ------- 2 1.0 5.0 8 8
+ 0.254 2 3 cbr 1000 ------- 2 1.0 5.0 17 17
r 0.256 2 3 cbr 1000 ------- 2 1.0 5.0 7 7
+ 0.262 2 3 cbr 1000 ------- 2 1.0 5.0 18 18
- 0.262 2 3 cbr 1000 ------- 2 1.0 5.0 9 9
+ 0.27 2 3 cbr 1000 ------- 2 1.0 5.0 19 19
r 0.272 2 3 cbr 1000 ------- 2 1.0 5.0 8 8
+ 0.278 2 3 cbr 1000 ------- 2 1.0 5.0 20 20
- 0.278 2 3 cbr 1000 ------- 2 1.0 5.0 10 10
+ 0.286 2 3 cbr 1000 ------- 2 1.0 5.0 21 21
r 0.288 2 3 cbr 1000 ------- 2 1.0 5.0 9 9
+ 0.294 2 3 cbr 1000 ------- 2 1.0 5.0 22 22
- 0.294 2 3 cbr 1000 ------- 2 1.0 5.0 11 11
+ 0.302 2 3 cbr 1000 ------- 2 1.0 5.0 23 23
r 0.304 2 3 cbr 1000 ------- 2 1.0 5.0 10 10
+ 0.31 2 3 cbr 1000 ------- 2 1.0 5.0 24 24
- 0.31 2 3 cbr 1000 ------- 2 1.0 5.0 12 12
+ 0.318 2 3 cbr 1000 ------- 2 1.0 5.0 25 25
r 0.32 2 3 cbr 1000 ------- 2 1.0 5.0 11 11
+ 0.326 2 3 cbr 1000 ------- 2 1.0 5.0 26 26
- 0.326 2 3 cbr 1000 ------- 2 1.0 5.0 13 13
+ 0.334 2 3 cbr 1000 ------- 2 1.0 5.0 27 27
r 0.336 2 3 cbr 1000 ------- 2 1.0 5.0 12 12
+ 0.342 2 3 cbr 1000 ------- 2 1.0 5.0 28 28
- 0.342 2 3 cbr 1000 ------- 2 1.0 5.0 14 14
+ 0.35 2 3 cbr 1000 ------- 2 1.0 5.0 29 29
r 0.352 2 3 cbr 1000 ------- 2 1.0 5.0 13 13
+ 0.358 2 3 cbr 1000 ------- 2 1.0 5.0 30 30
- 0.358 2 3 cbr 1000 ------- 2 1.0 5.0 15 15
+ 0.366 2 3 cbr 1000 ------- 2 1.0 5.0 31 31
r 0.368 2 3 cbr 1000 ------- 2 1.0 5.0 14 14
+ 0.374 2 3 cbr 1000 ------- 2 1.0 5.0 32 32
- 0.374 2 3 cbr 1000 ------- 2 1.0 5.0 16 16
+ 0.382 2 3 cbr 1000 ------- 2 1.0 5.0 33 33
r 0.384 2 3 cbr 1000 ------- 2 1.0 5.0 15 15
+ 0.39 2 3 cbr 1000 ------- 2 1.0 5.0 34 34
- 0.39 2 3 cbr 1000 ------- 2 1.0 5.0 17 17
+ 0.398 2 3 cbr 1000 ------- 2 1.0 5.0 35 35
r 0.4 2 3 cbr 1000 ------- 2 1.0 5.0 16 16
+ 0.406 2 3 cbr 1000 ------- 2 1.0 5.0 36 36
- 0.406 2 3 cbr 1000 ------- 2 1.0 5.0 18 18
+ 0.414 2 3 cbr 1000 ------- 2 1.0 5.0 37 37
r 0.416 2 3 cbr 1000 ------- 2 1.0 5.0 17 17
+ 0.422 2 3 cbr 1000 ------- 2 1.0 5.0 38 38
- 0.422 2 3 cbr 1000 ------- 2 1.0 5.0 19 19
+ 0.43 2 3 cbr 1000 ------- 2 1.0 5.0 39 39
r 0.432 2 3 cbr 1000 ------- 2 1.0 5.0 18 18
+ 0.438 2 3 cbr 1000 ------- 2 1.0 5.0 40 40
- 0.438 2 3 cbr 1000 ------- 2 1.0 5.0 20 20
+ 0.446 2 3 cbr 1000 ------- 2 1.0 5.0 41 41
r 0.448 2 3 cbr 1000 ------- 2 1.0 5.0 19 19
+ 0.454 2 3 cbr 1000 ------- 2 1.0 5.0 42 42
- 0.454 2 3 cbr 1000 ------- 2 1.0 5.0 21 21
+ 0.462 2 3 cbr 1000 ------- 2 1.0 5.0 43 43
r 0.464 2 3 cbr 1000 ------- 2 1.0 5.0 20 20
+ 0.47 2 3 cbr 1000 ------- 2 1.0 5.0 44 44
- 0.47 2 3 cbr 1000 ------- 2 1.0 5.0 22 22
+ 0.478 2 3 cbr 1000 ------- 2 1.0 5.0 45 45
r 0.48 2 3 cbr 1000 ------- 2 1.0 5.0 21 21
+ 0.486 2 3 cbr 1000 ------- 2 1.0 5.0 46 46
- 0.486 2 3 cbr 1000 ------- 2 1.0 5.0 23 23
+ 0.494 2 3 cbr 1000 ------- 2 1.0 5.0 47 47
r 0.496 2 3 cbr 1000 ------- 2 1.0 5.0 22 22
+ 0.502 2 3 cbr 1000 ------- 2 1.0 5.0 48 48
- 0.502 2 3 cbr 1000 ------- 2 1.0 5.0 24 24
+ 0.51 2 3 cbr 1000 ------- 2 1.0 5.0 49 49
r 0.512 2 3 cbr 1000 ------- 2 1.0 5.0 23 23
+ 0.518 2 3 cbr 1000 ------- 2 1.0 5.0 50 50
- 0.518 2 3 cbr 1000 ------- 2 1.0 5.0 25 25
+ 0.526 2 3 cbr 1000 ------- 2 1.0 5.0 51 51
r 0.528 2 3 cbr 1000 ------- 2 1.0 5.0 24 24
+ 0.534 2 3 cbr 1000 ------- 2 1.0 5.0 52 52
- 0.534 2 3 cbr 1000 ------- 2 1.0 5.0 26 26
+ 0.542 2 3 cbr 1000 ------- 2 1.0 5.0 53 53
r 0.544 2 3 cbr 1000 ------- 2 1.0 5.0 25 25
+ 0.55 2 3 cbr 1000 ------- 2 1.0 5.0 54 54
- 0.55 2 3 cbr 1000 ------- 2 1.0 5.0 27 27
+ 0.558 2 3 cbr 1000 ------- 2 1.0 5.0 55 55
r 0.56 2 3 cbr 1000 ------- 2 1.0 5.0 26 26
+ 0.566 2 3 cbr 1000 ------- 2 1.0 5.0 56 56
- 0.566 2 3 cbr 1000 ------- 2 1.0 5.0 28 28
+ 0.574 2 3 cbr 1000 ------- 2 1.0 5.0 57 57
r 0.576 2 3 cbr 1000 ------- 2 1.0 5.0 27 27
+ 0.582 2 3 cbr 1000 ------- 2 1.0 5.0 58 58
- 0.582 2 3 cbr 1000 ------- 2 1.0 5.0 29 29
+ 0.59 2 3 cbr 1000 ------- 2 1.0 5.0 59 59
r 0.592 2 3 cbr 1000 ------- 2 1.0 5.0 28 28
+ 0.598 2 3 cbr 1000 ------- 2 1.0 5.0 60 60
- 0.598 2 3 cbr 1000 ------- 2 1.0 5.0 30 30
+ 0.606 2 3 cbr 1000 ------- 2 1.0 5.0 61 61
r 0.608 2 3 cbr 1000 ------- 2 1.0 5.0 29 29
+ 0.614 2 3 cbr 1000 ------- 2 1.0 5.0 62 62
- 0.614 2 3 cbr 1000 ------- 2 1.0 5.0 31 31
+ 0.622 2 3 cbr 1000 ------- 2 1.0 5.0 63 63
r 0.624 2 3 cbr 1000 ------- 2 1.0 5.0 30 30
+ 0.63 2 3 cbr 1000 ------- 2 1.0 5.0 64 64
- 0.63 2 3 cbr 1000 ------- 2 1.0 5.0 32 32
+ 0.638 2 3 cbr 1000 ------- 2 1.0 5.0 65 65
r 0.64 2 3 cbr 1000 ------- 2 1.0 5.0 31 31
+ 0.646 2 3 cbr 1000 ------- 2 1.0 5.0 66 66
- 0.646 2 3 cbr 1000 ------- 2 1.0 5.0 33 33
+ 0.654 2 3 cbr 1000 ------- 2 1.0 5.0 67 67
r 0.656 2 3 cbr 1000 ------- 2 1.0 5.0 32 32
+ 0.662 2 3 cbr 1000 ------- 2 1.0 5.0 68 68
- 0.662 2 3 cbr 1000 ------- 2 1.0 5.0 34 34
+ 0.67 2 3 cbr 1000 ------- 2 1.0 5.0 69 69
r 0.672 2 3 cbr 1000 ------- 2 1.0 5.0 33 33
+ 0.678 2 3 cbr 1000 ------- 2 1.0 5.0 70 70
- 0.678 2 3 cbr 1000 ------- 2 1.0 5.0 35 35
+ 0.686 2 3 cbr 1000 ------- 2 1.0 5.0 71 71
r 0.688 2 3 cbr 1000 ------- 2 1.0 5.0 34 34
+ 0.694 2 3 cbr 1000 ------- 2 1.0 5.0 72 72
- 0.694 2 3 cbr 1000 ------- 2 1.0 5.0 36 36
+ 0.702 2 3 cbr 1000 ------- 2 1.0 5.0 73 73
r 0.704 2 3 cbr 1000 ------- 2 1.0 5.0 35 35
+ 0.71 2 3 cbr 1000 ------- 2 1.0 5.0 74 74
- 0.71 2 3 cbr 1000 ------- 2 1.0 5.0 37 37
+ 0.718 2 3 cbr 1000 ------- 2 1.0 5.0 75 75
r 0.72 2 3 cbr 1000 ------- 2 1.0 5.0 36 36
+ 0.726 2 3 cbr 1000 ------- 2 1.0 5.0 76 76
- 0.726 2 3 cbr 1000 ------- 2 1.0 5.0 38 38
+ 0.734 2 3 cbr 1000 ------- 2 1.0 5.0 77 77
r 0.736 2 3 cbr 1000 ------- 2 1.0 5.0 37 37
+ 0.742 2 3 cbr 1000 ------- 2 1.0 5.0 78 78
- 0.742 2 3 cbr 1000 ------- 2 1.0 5.0 39 39
+ 0.75 2 3 cbr 1000 ------- 2 1.0 5.0 79 79
r 0.752 2 3 cbr 1000 ------- 2 1.0 5.0 38 38
+ 0.758 2 3 cbr 1000 ------- 2 1.0 5.0 80 80
- 0.758 2 3 cbr 1000 ------- 2 1.0 5.0 40 40
+ 0.766 2 3 cbr 1000 ------- 2 1.0 5.0 81 81
r 0.768 2 3 cbr 1000 ------- 2 1.0 5.0 39 39
+ 0.774 2 3 cbr 1000 ------- 2 1.0 5.0 82 82
- 0.774 2 3 cbr 1000 ------- 2 1.0 5.0 41 41
+ 0.782 2 3 cbr 1000 ------- 2 1.0 5.0 83 83
r 0.784 2 3 cbr 1000 ------- 2 1.0 5.0 40 40
+ 0.79 2 3 cbr 1000 ------- 2 1.0 5.0 84 84
- 0.79 2 3 cbr 1000 ------- 2 1.0 5.0 42 42
+ 0.798 2 3 cbr 1000 ------- 2 1.0 5.0 85 85
r 0.8 2 3 cbr 1000 ------- 2 1.0 5.0 41 41
+ 0.806 2 3 cbr 1000 ------- 2 1.0 5.0 86 86
- 0.806 2 3 cbr 1000 ------- 2 1.0 5.0 43 43
+ 0.814 2 3 cbr 1000 ------- 2 1.0 5.0 87 87
r 0.816 2 3 cbr 1000 ------- 2 1.0 5.0 42 42
+ 0.822 2 3 cbr 1000 ------- 2 1.0 5.0 88 88
- 0.822 2 3 cbr 1000 ------- 2 1.0 5.0 44 44
+ 0.83 2 3 cbr 1000 ------- 2 1.0 5.0 89 89
r 0.832 2 3 cbr 1000 ------- 2 1.0 5.0 43 43
+ 0.838 2 3 cbr 1000 ------- 2 1.0 5.0 90 90
- 0.838 2 3 cbr 1000 ------- 2 1.0 5.0 45 45
+ 0.846 2 3 cbr 1000 ------- 2 1.0 5.0 91 91
r 0.848 2 3 cbr 1000 ------- 2 1.0 5.0 44 44
+ 0.854 2 3 cbr 1000 ------- 2 1.0 5.0 92 92
- 0.854 2 3 cbr 1000 ------- 2 1.0 5.0 46 46
+ 0.862 2 3 cbr 1000 ------- 2 1.0 5.0 93 93
r 0.864 2 3 cbr 1000 ------- 2 1.0 5.0 45 45
+ 0.87 2 3 cbr 1000 ------- 2 1.0 5.0 94 94
- 0.87 2 3 cbr 1000 ------- 2 1.0 5.0 47 47
+ 0.878 2 3 cbr 1000 ------- 2 1.0 5.0 95 95
r 0.88 2 3 cbr 1000 ------- 2 1.0 5.0 46 46
+ 0.886 2 3 cbr 1000 ------- 2 1.0 5.0 96 96
- 0.886 2 3 cbr 1000 ------- 2 1.0 5.0 48 48
+ 0.894 2 3 cbr 1000 ------- 2 1.0 5.0 97 97
r 0.896 2 3 cbr 1000 ------- 2 1.0 5.0 47 47
+ 0.902 2 3 cbr 1000 ------- 2 1.0 5.0 98 98
d 0.902 2 3 cbr 1000 ------- 2 1.0 5.0 98 98
- 0.902 2 3 cbr 1000 ------- 2 1.0 5.0 49 49
+ 0.91 2 3 cbr 1000 ------- 2 1.0 5.0 99 99
r 0.912 2 3 cbr 1000 ------- 2 1.0 5.0 48 48
+ 0.918 2 3 cbr 1000 ------- 2 1.0 5.0 100 100
d 0.918 2 3 cbr 1000 ------- 2 1.0 5.0 100 100
- 0.918 2 3 cbr 1000 ------- 2 1.0 5.0 50 50
+ 0.926 2 3 cbr 1000 ------- 2 1.0 5.0 101 101
r 0.928 2 3 cbr 1000 ------- 2 1.0 5.0 49 49
+ 0.934 2 3 cbr 1000 ------- 2 1.0 5.0 102 102
d 0.934 2 3 cbr 1000 ------- 2 1.0 5.0 102 102
- 0.934 2 3 cbr 1000 ------- 2 1.0 5.0 51 51
+ 0.942 2 3 cbr 1000 ------- 2 1.0 5.0 103 103
r 0.944 2 3 cbr 1000 ------- 2 1.0 5.0 50 50
+ 0.95 2 3 cbr 1000 ------- 2 1.0 5.0 104 104
d 0.95 2 3 cbr 1000 ------- 2 1.0 5.0 104 104
- 0.95 2 3 cbr 1000 ------- 2 1.0 5.0 52 52
+ 0.958 2 3 cbr 1000 ------- 2 1.0 5.0 105 105
r 0.96 2 3 cbr 1000 ------- 2 1.0 5.0 51 51
+ 0.966 2 3 cbr 1000 ------- 2 1.0 5.0 106 106
d 0.966 2 3 cbr 1000 ------- 2 1.0 5.0 106 106
- 0.966 2 3 cbr 1000 ------- 2 1.0 5.0 53 53
+ 0.974 2 3 cbr 1000 ------- 2 1.0 5.0 107 107
r 0.976 2 3 cbr 1000 ------- 2 1.0 5.0 52 52
+ 0.982 2 3 cbr 1000 ------- 2 1.0 5.0 108 108
d 0.982 2 3 cbr 1000 ------- 2 1.0 5.0 108 108
- 0.982 2 3 cbr 1000 ------- 2 1.0 5.0 54 54
+ 0.99 2 3 cbr 1000 ------- 2 1.0 5.0 109 109
r 0.992 2 3 cbr 1000 ------- 2 1.0 5.0 53 53
+ 0.998 2 3 cbr 1000 ------- 2 1.0 5.0 110 110
d 0.998 2 3 cbr 1000 ------- 2 1.0 5.0 110 110
- 0.998 2 3 cbr 1000 ------- 2 1.0 5.0 55 55
+ 1.006 2 3 cbr 1000 ------- 2 1.0 5.0 111 111
r 1.008 2 3 cbr 1000 ------- 2 1.0 5.0 54 54
+ 1.01032 2 3 tcp 40 ------- 1 0.0 4.0 0 113
d 1.01032 2 3 tcp 40 ------- 1 0.0 4.0 0 113
+ 1.014 2 3 cbr 1000 ------- 2 1.0 5.0 112 112
d 1.014 2 3 cbr 1000 ------- 2 1.0 5.0 112 112
- 1.014 2 3 cbr 1000 ------- 2 1.0 5.0 56 56
+ 1.022 2 3 cbr 1000 ------- 2 1.0 5.0 113 114
r 1.024 2 3 cbr 1000 ------- 2 1.0 5.0 55 55
+ 1.03 2 3 cbr 1000 ------- 2 1.0 5.0 114 115
d 1.03 2 3 cbr 1000 ------- 2 1.0 5.0 114 115
- 1.03 2 3 cbr 1000 ------- 2 1.0 5.0 57 57
+ 1.038 2 3 cbr 1000 ------- 2 1.0 5.0 115 116
r 1.04 2 3 cbr 1000 ------- 2 1.0 5.0 56 56
+ 1.046 2 3 cbr 1000 ------- 2 1.0 5.0 116 117
d 1.046 2 3 cbr 1000 ------- 2 1.0 5.0 116 117
- 1.046 2 3 cbr 1000 ------- 2 1.0 5.0 58 58
+ 1.054 2 3 cbr 1000 ------- 2 1.0 5.0 117 118
r 1.056 2 3 cbr 1000 ------- 2 1.0 5.0 57 57
+ 1.062 2 3 cbr 1000 ------- 2 1.0 5.0 118 119
d 1.062 2 3 cbr 1000 ------- 2 1.0 5.0 118 119
- 1.062 2 3 cbr 1000 ------- 2 1.0 5.0 59 59
+ 1.07 2 3 cbr 1000 ------- 2 1.0 5.0 119 120
r 1.072 2 3 cbr 1000 ------- 2 1.0 5.0 58 58
+ 1.078 2 3 cbr 1000 ------- 2 1.0 5.0 120 121
d 1.078 2 3 cbr 1000 ------- 2 1.0 5.0 120 121
- 1.078 2 3 cbr 1000 ------- 2 1.0 5.0 60 60
+ 1.086 2 3 cbr 1000 ------- 2 1.0 5.0 121 122
r 1.088 2 3 cbr 1000 ------- 2 1.0 5.0 59 59
+ 1.094 2 3 cbr 1000 ------- 2 1.0 5.0 122 123
d 1.094 2 3 cbr 1000 ------- 2 1.0 5.0 122 123
- 1.094 2 3 cbr 1000 ------- 2 1.0 5.0 61 61
+ 1.102 2 3 cbr 1000 ------- 2 1.0 5.0 123 124
r 1.104 2 3 cbr 1000 ------- 2 1.0 5.0 60 60
+ 1.11 2 3 cbr 1000 ------- 2 1.0 5.0 124 125
d 1.11 2 3 cbr 1000 ------- 2 1.0 5.0 124 125
- 1.11 2 3 cbr 1000 ------- 2 1.0 5.0 62 62
+ 1.118 2 3 cbr 1000 ------- 2 1.0 5.0 125 126
r 1.12 2 3 cbr 1000 ------- 2 1.0 5.0 61 61
+ 1.126 2 3 cbr 1000 ------- 2 1.0 5.0 126 127
d 1.126 2 3 cbr 1000 ------- 2 1.0 5.0 126 127
- 1.126 2 3 cbr 1000 ------- 2 1.0 5.0 63 63
+ 1.134 2 3 cbr 1000 ------- 2 1.0 5.0 127 128
r 1.136 2 3 cbr 1000 ------- 2 1.0 5.0 62 62
+ 1.142 2 3 cbr 1000 ------- 2 1.0 5.0 128 129
d 1.142 2 3 cbr 1000 ------- 2 1.0 5.0 128 129
- 1.142 2 3 cbr 1000 ------- 2 1.0 5.0 64 64
+ 1.15 2 3 cbr 1000 ------- 2 1.0 5.0 129 130
r 1.152 2 3 cbr 1000 ------- 2 1.0 5.0 63 63
+ 1.158 2 3 cbr 1000 ------- 2 1.0 5.0 130 131
d 1.158 2 3 cbr 1000 ------- 2 1.0 5.0 130 131
- 1.158 2 3 cbr 1000 ------- 2 1.0 5.0 65 65
+ 1.166 2 3 cbr 1000 ------- 2 1.0 5.0 131 132
r 1.168 2 3 cbr 1000 ------- 2 1.0 5.0 64 64
+ 1.174 2 3 cbr 1000 ------- 2 1.0 5.0 132 133
d 1.174 2 3 cbr 1000 ------- 2 1.0 5.0 132 133
- 1.174 2 3 cbr 1000 ------- 2 1.0 5.0 66 66
+ 1.182 2 3 cbr 1000 ------- 2 1.0 5.0 133 134
r 1.184 2 3 cbr 1000 ------- 2 1.0 5.0 65 65
+ 1.19 2 3 cbr 1000 ------- 2 1.0 5.0 134 135
d 1.19 2 3 cbr 1000 ------- 2 1.0 5.0 134 135
- 1.19 2 3 cbr 1000 ------- 2 1.0 5.0 67 67
+ 1.198 2 3 cbr 1000 ------- 2 1.0 5.0 135 136
r 1.2 2 3 cbr 1000 ------- 2 1.0 5.0 66 66
+ 1.206 2 3 cbr 1000 ------- 2 1.0 5.0 136 137
d 1.206 2 3 cbr 1000 ------- 2 1.0 5.0 136 137
- 1.206 2 3 cbr 1000 ------- 2 1.0 5.0 68 68
+ 1.214 2 3 cbr 1000 ------- 2 1.0 5.0 137 138
r 1.216 2 3 cbr 1000 ------- 2 1.0 5.0 67 67
+ 1.222 2 3 cbr 1000 ------- 2 1.0 5.0 138 139
d 1.222 2 3 cbr 1000 ------- 2 1.0 5.0 138 139
- 1.222 2 3 cbr 1000 ------- 2 1.0 5.0 69 69
+ 1.23 2 3 cbr 1000 ------- 2 1.0 5.0 139 140
r 1.232 2 3 cbr 1000 ------- 2 1.0 5.0 68 68
+ 1.238 2 3 cbr 1000 ------- 2 1.0 5.0 140 141
d 1.238 2 3 cbr 1000 ------- 2 1.0 5.0 140 141
- 1.238 2 3 cbr 1000 ------- 2 1.0 5.0 70 70
+ 1.246 2 3 cbr 1000 ------- 2 1.0 5.0 141 142
r 1.248 2 3 cbr 1000 ------- 2 1.0 5.0 69 69
+ 1.254 2 3 cbr 1000 ------- 2 1.0 5.0 142 143
d 1.254 2 3 cbr 1000 ------- 2 1.0 5.0 142 143
- 1.254 2 3 cbr 1000 ------- 2 1.0 5.0 71 71
+ 1.262 2 3 cbr 1000 ------- 2 1.0 5.0 143 144
r 1.264 2 3 cbr 1000 ------- 2 1.0 5.0 70 70
+ 1.27 2 3 cbr 1000 ------- 2 1.0 5.0 144 145
d 1.27 2 3 cbr 1000 ------- 2 1.0 5.0 144 145
- 1.27 2 3 cbr 1000 ------- 2 1.0 5.0 72 72
+ 1.278 2 3 cbr 1000 ------- 2 1.0 5.0 145 146
r 1.28 2 3 cbr 1000 ------- 2 1.0 5.0 71 71
+ 1.286 2 3 cbr 1000 ------- 2 1.0 5.0 146 147
d 1.286 2 3 cbr 1000 ------- 2 1.0 5.0 146 147
- 1.286 2 3 cbr 1000 ------- 2 1.0 5.0 73 73
+ 1.294 2 3 cbr 1000 ------- 2 1.0 5.0 147 148
r 1.296 2 3 cbr 1000 ------- 2 1.0 5.0 72 72
+ 1.302 2 3 cbr 1000 ------- 2 1.0 5.0 148 149
d 1.302 2 3 cbr 1000 ------- 2 1.0 5.0 148 149
- 1.302 2 3 cbr 1000 ------- 2 1.0 5.0 74 74
+ 1.31 2 3 cbr 1000 ------- 2 1.0 5.0 149 150
r 1.312 2 3 cbr 1000 ------- 2 1.0 5.0 73 73
+ 1.318 2 3 cbr 1000 ------- 2 1.0 5.0 150 151
d 1.318 2 3 cbr 1000 ------- 2 1.0 5.0 150 151
- 1.318 2 3 cbr 1000 ------- 2 1.0 5.0 75 75
+ 1.326 2 3 cbr 1000 ------- 2 1.0 5.0 151 152
r 1.328 2 3 cbr 1000 ------- 2 1.0 5.0 74 74
+ 1.334 2 3 cbr 1000 ------- 2 1.0 5.0 152 153
d 1.334 2 3 cbr 1000 ------- 2 1.0 5.0 152 153
- 1.334 2 3 cbr 1000 ------- 2 1.0 5.0 76 76
+ 1.342 2 3 cbr 1000 ------- 2 1.0 5.0 153 154
r 1.344 2 3 cbr 1000 ------- 2 1.0 5.0 75 75
+ 1.35 2 3 cbr 1000 ------- 2 1.0 5.0 154 155
d 1.35 2 3 cbr 1000 ------- 2 1.0 5.0 154 155
- 1.35 2 3 cbr 1000 ------- 2 1.0 5.0 77 77
+ 1.358 2 3 cbr 1000 ------- 2 1.0 5.0 155 156
r 1.36 2 3 cbr 1000 ------- 2 1.0 5.0 76 76
+ 1.366 2 3 cbr 1000 ------- 2 1.0 5.0 156 157
d 1.366 2 3 cbr 1000 ------- 2 1.0 5.0 156 157
- 1.366 2 3 cbr 1000 ------- 2 1.0 5.0 78 78
+ 1.374 2 3 cbr 1000 ------- 2 1.0 5.0 157 158
r 1.376 2 3 cbr 1000 ------- 2 1.0 5.0 77 77
+ 1.382 2 3 cbr 1000 ------- 2 1.0 5.0 158 159
d 1.382 2 3 cbr 1000 ------- 2 1.0 5.0 158 159
- 1.382 2 3 cbr 1000 ------- 2 1.0 5.0 79 79
+ 1.39 2 3 cbr 1000 ------- 2 1.0 5.0 159 160
r 1.392 2 3 cbr 1000 ------- 2 1.0 5.0 78 78
+ 1.398 2 3 cbr 1000 ------- 2 1.0 5.0 160 161
d 1.398 2 3 cbr 1000 ------- 2 1.0 5.0 160 161
- 1.398 2 3 cbr 1000 ------- 2 1.0 5.0 80 80
+ 1.406 2 3 cbr 1000 ------- 2 1.0 5.0 161 162
r 1.408 2 3 cbr 1000 ------- 2 1.0 5.0 79 79
+ 1.414 2 3 cbr 1000 ------- 2 1.0 5.0 162 163
d 1.414 2 3 cbr 1000 ------- 2 1.0 5.0 162 163
- 1.414 2 3 cbr 1000 ------- 2 1.0 5.0 81 81
+ 1.422 2 3 cbr 1000 ------- 2 1.0 5.0 163 164
r 1.424 2 3 cbr 1000 ------- 2 1.0 5.0 80 80
+ 1.43 2 3 cbr 1000 ------- 2 1.0 5.0 164 165
d 1.43 2 3 cbr 1000 ------- 2 1.0 5.0 164 165
- 1.43 2 3 cbr 1000 ------- 2 1.0 5.0 82 82
+ 1.438 2 3 cbr 1000 ------- 2 1.0 5.0 165 166
r 1.44 2 3 cbr 1000 ------- 2 1.0 5.0 81 81
+ 1.446 2 3 cbr 1000 ------- 2 1.0 5.0 166 167
d 1.446 2 3 cbr 1000 ------- 2 1.0 5.0 166 167
- 1.446 2 3 cbr 1000 ------- 2 1.0 5.0 83 83
+ 1.454 2 3 cbr 1000 ------- 2 1.0 5.0 167 168
r 1.456 2 3 cbr 1000 ------- 2 1.0 5.0 82 82
+ 1.462 2 3 cbr 1000 ------- 2 1.0 5.0 168 169
d 1.462 2 3 cbr 1000 ------- 2 1.0 5.0 168 169
- 1.462 2 3 cbr 1000 ------- 2 1.0 5.0 84 84
+ 1.47 2 3 cbr 1000 ------- 2 1.0 5.0 169 170
r 1.472 2 3 cbr 1000 ------- 2 1.0 5.0 83 83
+ 1.478 2 3 cbr 1000 ------- 2 1.0 5.0 170 171
d 1.478 2 3 cbr 1000 ------- 2 1.0 5.0 170 171
- 1.478 2 3 cbr 1000 ------- 2 1.0 5.0 85 85
+ 1.486 2 3 cbr 1000 ------- 2 1.0 5.0 171 172
r 1.488 2 3 cbr 1000 ------- 2 1.0 5.0 84 84
+ 1.494 2 3 cbr 1000 ------- 2 1.0 5.0 172 173
d 1.494 2 3 cbr 1000 ------- 2 1.0 5.0 172 173
- 1.494 2 3 cbr 1000 ------- 2 1.0 5.0 86 86
+ 1.502 2 3 cbr 1000 ------- 2 1.0 5.0 173 174
r 1.504 2 3 cbr 1000 ------- 2 1.0 5.0 85 85
+ 1.51 2 3 cbr 1000 ------- 2 1.0 5.0 174 175
d 1.51 2 3 cbr 1000 ------- 2 1.0 5.0 174 175
- 1.51 2 3 cbr 1000 ------- 2 1.0 5.0 87 87
+ 1.518 2 3 cbr 1000 ------- 2 1.0 5.0 175 176
r 1.52 2 3 cbr 1000 ------- 2 1.0 5.0 86 86
+ 1.526 2 3 cbr 1000 ------- 2 1.0 5.0 176 177
d 1.526 2 3 cbr 1000 ------- 2 1.0 5.0 176 177
- 1.526 2 3 cbr 1000 ------- 2 1.0 5.0 88 88
+ 1.534 2 3 cbr 1000 ------- 2 1.0 5.0 177 178
r 1.536 2 3 cbr 1000 ------- 2 1.0 5.0 87 87
+ 1.542 2 3 cbr 1000 ------- 2 1.0 5.0 178 179
d 1.542 2 3 cbr 1000 ------- 2 1.0 5.0 178 179
- 1.542 2 3 cbr 1000 ------- 2 1.0 5.0 89 89
+ 1.55 2 3 cbr 1000 ------- 2 1.0 5.0 179 180
r 1.552 2 3 cbr 1000 ------- 2 1.0 5.0 88 88
+ 1.558 2 3 cbr 1000 ------- 2 1.0 5.0 180 181
d 1.558 2 3 cbr 1000 ------- 2 1.0 5.0 180 181
- 1.558 2 3 cbr 1000 ------- 2 1.0 5.0 90 90
+ 1.566 2 3 cbr 1000 ------- 2 1.0 5.0 181 182
r 1.568 2 3 cbr 1000 ------- 2 1.0 5.0 89 89
+ 1.574 2 3 cbr 1000 ------- 2 1.0 5.0 182 183
d 1.574 2 3 cbr 1000 ------- 2 1.0 5.0 182 183
- 1.574 2 3 cbr 1000 ------- 2 1.0 5.0 91 91
+ 1.582 2 3 cbr 1000 ------- 2 1.0 5.0 183 184
r 1.584 2 3 cbr 1000 ------- 2 1.0 5.0 90 90
+ 1.59 2 3 cbr 1000 ------- 2 1.0 5.0 184 185
d 1.59 2 3 cbr 1000 ------- 2 1.0 5.0 184 185
- 1.59 2 3 cbr 1000 ------- 2 1.0 5.0 92 92
+ 1.598 2 3 cbr 1000 ------- 2 1.0 5.0 185 186
r 1.6 2 3 cbr 1000 ------- 2 1.0 5.0 91 91
+ 1.606 2 3 cbr 1000 ------- 2 1.0 5.0 186 187
d 1.606 2 3 cbr 1000 ------- 2 1.0 5.0 186 187
- 1.606 2 3 cbr 1000 ------- 2 1.0 5.0 93 93
+ 1.614 2 3 cbr 1000 ------- 2 1.0 5.0 187 188
r 1.616 2 3 cbr 1000 ------- 2 1.0 5.0 92 92
+ 1.622 2 3 cbr 1000 ------- 2 1.0 5.0 188 189
d 1.622 2 3 cbr 1000 ------- 2 1.0 5.0 188 189
- 1.622 2 3 cbr 1000 ------- 2 1.0 5.0 94 94
+ 1.63 2 3 cbr 1000 ------- 2 1.0 5.0 189 190
r 1.632 2 3 cbr 1000 ------- 2 1.0 5.0 93 93
+ 1.638 2 3 cbr 1000 ------- 2 1.0 5.0 190 191
d 1.638 2 3 cbr 1000 ------- 2 1.0 5.0 190 191
- 1.638 2 3 cbr 1000 ------- 2 1.0 5.0 95 95
+ 1.646 2 3 cbr 1000 ------- 2 1.0 5.0 191 192
r 1.648 2 3 cbr 1000 ------- 2 1.0 5.0 94 94
+ 1.654 2 3 cbr 1000 ------- 2 1.0 5.0 192 193
d 1.654 2 3 cbr 1000 ------- 2 1.0 5.0 192 193
- 1.654 2 3 cbr 1000 ------- 2 1.0 5.0 96 96
+ 1.662 2 3 cbr 1000 ------- 2 1.0 5.0 193 194
r 1.664 2 3 cbr 1000 ------- 2 1.0 5.0 95 95
+ 1.67 2 3 cbr 1000 ------- 2 1.0 5.0 194 195
d 1.67 2 3 cbr 1000 ------- 2 1.0 5.0 194 195
- 1.67 2 3 cbr 1000 ------- 2 1.0 5.0 97 97
+ 1.678 2 3 cbr 1000 ------- 2 1.0 5.0 195 196
r 1.68 2 3 cbr 1000 ------- 2 1.0 5.0 96 96
+ 1.686 2 3 cbr 1000 ------- 2 1.0 5.0 196 197
d 1.686 2 3 cbr 1000 ------- 2 1.0 5.0 196 197
- 1.686 2 3 cbr 1000 ------- 2 1.0 5.0 99 99
+ 1.694 2 3 cbr 1000 ------- 2 1.0 5.0 197 198
r 1.696 2 3 cbr 1000 ------- 2 1.0 5.0 97 97
+ 1.702 2 3 cbr 1000 ------- 2 1.0 5.0 198 199
d 1.702 2 3 cbr 1000 ------- 2 1.0 5.0 198 199
- 1.702 2 3 cbr 1000 ------- 2 1.0 5.0 101 101
+ 1.71 2 3 cbr 1000 ------- 2 1.0 5.0 199 200
r 1.712 2 3 cbr 1000 ------- 2 1.0 5.0 99 99
+ 1.718 2 3 cbr 1000 ------- 2 1.0 5.0 200 201
d 1.718 2 3 cbr 1000 ------- 2 1.0 5.0 200 201
- 1.718 2 3 cbr 1000 ------- 2 1.0 5.0 103 103
+ 1.726 2 3 cbr 1000 ------- 2 1.0 5.0 201 202
r 1.728 2 3 cbr 1000 ------- 2 1.0 5.0 101 101
+ 1.734 2 3 cbr 1000 ------- 2 1.0 5.0 202 203
d 1.734 2 3 cbr 1000 ------- 2 1.0 5.0 202 203
- 1.734 2 3 cbr 1000 ------- 2 1.0 5.0 105 105
+ 1.742 2 3 cbr 1000 ------- 2 1.0 5.0 203 204
r 1.744 2 3 cbr 1000 ------- 2 1.0 5.0 103 103
+ 1.75 2 3 cbr 1000 ------- 2 1.0 5.0 204 205
d 1.75 2 3 cbr 1000 ------- 2 1.0 5.0 204 205
- 1.75 2 3 cbr 1000 ------- 2 1.0 5.0 107 107
+ 1.758 2 3 cbr 1000 ------- 2 1.0 5.0 205 206
r 1.76 2 3 cbr 1000 ------- 2 1.0 5.0 105 105
+ 1.766 2 3 cbr 1000 ------- 2 1.0 5.0 206 207
d 1.766 2 3 cbr 1000 ------- 2 1.0 5.0 206 207
- 1.766 2 3 cbr 1000 ------- 2 1.0 5.0 109 109
+ 1.774 2 3 cbr 1000 ------- 2 1.0 5.0 207 208
r 1.776 2 3 cbr 1000 ------- 2 1.0 5.0 107 107
+ 1.782 2 3 cbr 1000 ------- 2 1.0 5.0 208 209
d 1.782 2 3 cbr 1000 ------- 2 1.0 5.0 208 209
- 1.782 2 3 cbr 1000 ------- 2 1.0 5.0 111 111
+ 1.79 2 3 cbr 1000 ------- 2 1.0 5.0 209 210
r 1.792 2 3 cbr 1000 ------- 2 1.0 5.0 109 109
+ 1.798 2 3 cbr 1000 ------- 2 1.0 5.0 210 211
d 1.798 2 3 cbr 1000 ------- 2 1.0 5.0 210 211
- 1.798 2 3 cbr 1000 ------- 2 1.0 5.0 113 114
+ 1.806 2 3 cbr 1000 ------- 2 1.0 5.0 211 212
r 1.808 2 3 cbr 1000 ------- 2 1.0 5.0 111 111
+ 1.814 2 3 cbr 1000 ------- 2 1.0 5.0 212 213
d 1.814 2 3 cbr 1000 ------- 2 1.0 5.0 212 213
- 1.814 2 3 cbr 1000 ------- 2 1.0 5.0 115 116
+ 1.822 2 3 cbr 1000 ------- 2 1.0 5.0 213 214
r 1.824 2 3 cbr 1000 ------- 2 1.0 5.0 113 114
+ 1.83 2 3 cbr 1000 ------- 2 1.0 5.0 214 215
d 1.83 2 3 cbr 1000 ------- 2 1.0 5.0 214 215
- 1.83 2 3 cbr 1000 ------- 2 1.0 5.0 117 118
+ 1.838 2 3 cbr 1000 ------- 2 1.0 5.0 215 216
r 1.84 2 3 cbr 1000 ------- 2 1.0 5.0 115 116
+ 1.846 2 3 cbr 1000 ------- 2 1.0 5.0 216 217
d 1.846 2 3 cbr 1000 ------- 2 1.0 5.0 216 217
- 1.846 2 3 cbr 1000 ------- 2 1.0 5.0 119 120
+ 1.854 2 3 cbr 1000 ------- 2 1.0 5.0 217 218
r 1.856 2 3 cbr 1000 ------- 2 1.0 5.0 117 118
+ 1.862 2 3 cbr 1000 ------- 2 1.0 5.0 218 219
d 1.862 2 3 cbr 1000 ------- 2 1.0 5.0 218 219
- 1.862 2 3 cbr 1000 ------- 2 1.0 5.0 121 122
+ 1.87 2 3 cbr 1000 ------- 2 1.0 5.0 219 220
r 1.872 2 3 cbr 1000 ------- 2 1.0 5.0 119 120
+ 1.878 2 3 cbr 1000 ------- 2 1.0 5.0 220 221
d 1.878 2 3 cbr 1000 ------- 2 1.0 5.0 220 221
- 1.878 2 3 cbr 1000 ------- 2 1.0 5.0 123 124
+ 1.886 2 3 cbr 1000 ------- 2 1.0 5.0 221 222
r 1.888 2 3 cbr 1000 ------- 2 1.0 5.0 121 122
+ 1.894 2 3 cbr 1000 ------- 2 1.0 5.0 222 223
d 1.894 2 3 cbr 1000 ------- 2 1.0 5.0 222 223
- 1.894 2 3 cbr 1000 ------- 2 1.0 5.0 125 126
+ 1.902 2 3 cbr 1000 ------- 2 1.0 5.0 223 224
r 1.904 2 3 cbr 1000 ------- 2 1.0 5.0 123 124
+ 1.91 2 3 cbr 1000 ------- 2 1.0 5.0 224 225
d 1.91 2 3 cbr 1000 ------- 2 1.0 5.0 224 225
- 1.91 2 3 cbr 1000 ------- 2 1.0 5.0 127 128
+ 1.918 2 3 cbr 1000 ------- 2 1.0 5.0 225 226
r 1.92 2 3 cbr 1000 ------- 2 1.0 5.0 125 126
+ 1.926 2 3 cbr 1000 ------- 2 1.0 5.0 226 227
d 1.926 2 3 cbr 1000 ------- 2 1.0 5.0 226 227
- 1.926 2 3 cbr 1000 ------- 2 1.0 5.0 129 130
+ 1.934 2 3 cbr 1000 ------- 2 1.0 5.0 227 228
r 1.936 2 3 cbr 1000 ------- 2 1.0 5.0 127 128
+ 1.942 2 3 cbr 1000 ------- 2 1.0 5.0 228 229
d 1.942 2 3 cbr 1000 ------- 2 1.0 5.0 228 229
- 1.942 2 3 cbr 1000 ------- 2 1.0 5.0 131 132
+ 1.95 2 3 cbr 1000 ------- 2 1.0 5.0 229 230
r 1.952 2 3 cbr 1000 ------- 2 1.0 5.0 129 130
+ 1.958 2 3 cbr 1000 ------- 2 1.0 5.0 230 231
d 1.958 2 3 cbr 1000 ------- 2 1.0 5.0 230 231
- 1.958 2 3 cbr 1000 ------- 2 1.0 5.0 133 134
+ 1.966 2 3 cbr 1000 ------- 2 1.0 5.0 231 232
r 1.968 2 3 cbr 1000 ------- 2 1.0 5.0 131 132
+ 1.974 2 3 cbr 1000 ------- 2 1.0 5.0 232 233
d 1.974 2 3 cbr 1000 ------- 2 1.0 5.0 232 233
- 1.974 2 3 cbr 1000 ------- 2 1.0 5.0 135 136
+ 1.982 2 3 cbr 1000 ------- 2 1.0 5.0 233 234
r 1.984 2 3 cbr 1000 ------- 2 1.0 5.0 133 134
+ 1.99 2 3 cbr 1000 ------- 2 1.0 5.0 234 235
d 1.99 2 3 cbr 1000 ------- 2 1.0 5.0 234 235
- 1.99 2 3 cbr 1000 ------- 2 1.0 5.0 137 138
+ 1.998 2 3 cbr 1000 ------- 2 1.0 5.0 235 236
r 2 2 3 cbr 1000 ------- 2 1.0 5.0 135 136
+ 2.006 2 3 cbr 1000 ------- 2 1.0 5.0 236 237
d 2.006 2 3 cbr 1000 ------- 2 1.0 5.0 236 237
- 2.006 2 3 cbr 1000 ------- 2 1.0 5.0 139 140
+ 2.014 2 3 cbr 1000 ------- 2 1.0 5.0 237 238
r 2.016 2 3 cbr 1000 ------- 2 1.0 5.0 137 138
+ 2.022 2 3 cbr 1000 ------- 2 1.0 5.0 238 239
d 2.022 2 3 cbr 1000 ------- 2 1.0 5.0 238 239
- 2.022 2 3 cbr 1000 ------- 2 1.0 5.0 141 142
+ 2.03 2 3 cbr 1000 ------- 2 1.0 5.0 239 240
r 2.032 2 3 cbr 1000 ------- 2 1.0 5.0 139 140
+ 2.038 2 3 cbr 1000 ------- 2 1.0 5.0 240 241
d 2.038 2 3 cbr 1000 ------- 2 1.0 5.0 240 241
- 2.038 2 3 cbr 1000 ------- 2 1.0 5.0 143 144
+ 2.046 2 3 cbr 1000 ------- 2 1.0 5.0 241 242
r 2.048 2 3 cbr 1000 ------- 2 1.0 5.0 141 142
+ 2.054 2 3 cbr 1000 ------- 2 1.0 5.0 242 243
d 2.054 2 3 cbr 1000 ------- 2 1.0 5.0 242 243
- 2.054 2 3 cbr 1000 ------- 2 1.0 5.0 145 146
+ 2.062 2 3 cbr 1000 ------- 2 1.0 5.0 243 244
r 2.064 2 3 cbr 1000 ------- 2 1.0 5.0 143 144
+ 2.07 2 3 cbr 1000 ------- 2 1.0 5.0 244 245
d 2.07 2 3 cbr 1000 ------- 2 1.0 5.0 244 245
- 2.07 2 3 cbr 1000 ------- 2 1.0 5.0 147 148
+ 2.078 2 3 cbr 1000 ------- 2 1.0 5.0 245 246
r 2.08 2 3 cbr 1000 ------- 2 1.0 5.0 145 146
+ 2.086 2 3 cbr 1000 ------- 2 1.0 5.0 246 247
d 2.086 2 3 cbr 1000 ------- 2 1.0 5.0 246 247
- 2.086 2 3 cbr 1000 ------- 2 1.0 5.0 149 150
+ 2.094 2 3 cbr 1000 ------- 2 1.0 5.0 247 248
r 2.096 2 3 cbr 1000 ------- 2 1.0 5.0 147 148
+ 2.102 2 3 cbr 1000 ------- 2 1.0 5.0 248 249
d 2.102 2 3 cbr 1000 ------- 2 1.0 5.0 248 249
- 2.102 2 3 cbr 1000 ------- 2 1.0 5.0 151 152
+ 2.11 2 3 cbr 1000 ------- 2 1.0 5.0 249 250
r 2.112 2 3 cbr 1000 ------- 2 1.0 5.0 149 150
+ 2.118 2 3 cbr 1000 ------- 2 1.0 5.0 250 251
d 2.118 2 3 cbr 1000 ------- 2 1.0 5.0 250 251
- 2.118 2 3 cbr 1000 ------- 2 1.0 5.0 153 154
+ 2.126 2 3 cbr 1000 ------- 2 1.0 5.0 251 252
r 2.128 2 3 cbr 1000 ------- 2 1.0 5.0 151 152
+ 2.134 2 3 cbr 1000 ------- 2 1.0 5.0 252 253
d 2.134 2 3 cbr 1000 ------- 2 1.0 5.0 252 253
- 2.134 2 3 cbr 1000 ------- 2 1.0 5.0 155 156
+ 2.142 2 3 cbr 1000 ------- 2 1.0 5.0 253 254
r 2.144 2 3 cbr 1000 ------- 2 1.0 5.0 153 154
+ 2.15 2 3 cbr 1000 ------- 2 1.0 5.0 254 255
d 2.15 2 3 cbr 1000 ------- 2 1.0 5.0 254 255
- 2.15 2 3 cbr 1000 ------- 2 1.0 5.0 157 158
+ 2.158 2 3 cbr 1000 ------- 2 1.0 5.0 255 256
r 2.16 2 3 cbr 1000 ------- 2 1.0 5.0 155 156
+ 2.166 2 3 cbr 1000 ------- 2 1.0 5.0 256 257
d 2.166 2 3 cbr 1000 ------- 2 1.0 5.0 256 257
- 2.166 2 3 cbr 1000 ------- 2 1.0 5.0 159 160
+ 2.174 2 3 cbr 1000 ------- 2 1.0 5.0 257 258
r 2.176 2 3 cbr 1000 ------- 2 1.0 5.0 157 158
+ 2.182 2 3 cbr 1000 ------- 2 1.0 5.0 258 259
d 2.182 2 3 cbr 1000 ------- 2 1.0 5.0 258 259
- 2.182 2 3 cbr 1000 ------- 2 1.0 5.0 161 162
+ 2.19 2 3 cbr 1000 ------- 2 1.0 5.0 259 260
r 2.192 2 3 cbr 1000 ------- 2 1.0 5.0 159 160
+ 2.198 2 3 cbr 1000 ------- 2 1.0 5.0 260 261
d 2.198 2 3 cbr 1000 ------- 2 1.0 5.0 260 261
- 2.198 2 3 cbr 1000 ------- 2 1.0 5.0 163 164
+ 2.206 2 3 cbr 1000 ------- 2 1.0 5.0 261 262
r 2.208 2 3 cbr 1000 ------- 2 1.0 5.0 161 162
+ 2.214 2 3 cbr 1000 ------- 2 1.0 5.0 262 263
d 2.214 2 3 cbr 1000 ------- 2 1.0 5.0 262 263
- 2.214 2 3 cbr 1000 ------- 2 1.0 5.0 165 166
+ 2.222 2 3 cbr 1000 ------- 2 1.0 5.0 263 264
r 2.224 2 3 cbr 1000 ------- 2 1.0 5.0 163 164
+ 2.23 2 3 cbr 1000 ------- 2 1.0 5.0 264 265
d 2.23 2 3 cbr 1000 ------- 2 1.0 5.0 264 265
- 2.23 2 3 cbr 1000 ------- 2 1.0 5.0 167 168
+ 2.238 2 3 cbr 1000 ------- 2 1.0 5.0 265 266
r 2.24 2 3 cbr 1000 ------- 2 1.0 5.0 165 166
+ 2.246 2 3 cbr 1000 ------- 2 1.0 5.0 266 267
d 2.246 2 3 cbr 1000 ------- 2 1.0 5.0 266 267
- 2.246 2 3 cbr 1000 ------- 2 1.0 5.0 169 170
+ 2.254 2 3 cbr 1000 ------- 2 1.0 5.0 267 268
r 2.256 2 3 cbr 1000 ------- 2 1.0 5.0 167 168
+ 2.262 2 3 cbr 1000 ------- 2 1.0 5.0 268 269
d 2.262 2 3 cbr 1000 ------- 2 1.0 5.0 268 269
- 2.262 2 3 cbr 1000 ------- 2 1.0 5.0 171 172
+ 2.27 2 3 cbr 1000 ------- 2 1.0 5.0 269 270
r 2.272 2 3 cbr 1000 ------- 2 1.0 5.0 169 170
+ 2.278 2 3 cbr 1000 ------- 2 1.0 5.0 270 271
d 2.278 2 3 cbr 1000 ------- 2 1.0 5.0 270 271
- 2.278 2 3 cbr 1000 ------- 2 1.0 5.0 173 174
+ 2.286 2 3 cbr 1000 ------- 2 1.0 5.0 271 272
r 2.288 2 3 cbr 1000 ------- 2 1.0 5.0 171 172
+ 2.294 2 3 cbr 1000 ------- 2 1.0 5.0 272 273
d 2.294 2 3 cbr 1000 ------- 2 1.0 5.0 272 273
- 2.294 2 3 cbr 1000 ------- 2 1.0 5.0 175 176
+ 2.302 2 3 cbr 1000 ------- 2 1.0 5.0 273 274
r 2.304 2 3 cbr 1000 ------- 2 1.0 5.0 173 174
+ 2.31 2 3 cbr 1000 ------- 2 1.0 5.0 274 275
d 2.31 2 3 cbr 1000 ------- 2 1.0 5.0 274 275
- 2.31 2 3 cbr 1000 ------- 2 1.0 5.0 177 178
+ 2.318 2 3 cbr 1000 ------- 2 1.0 5.0 275 276
r 2.32 2 3 cbr 1000 ------- 2 1.0 5.0 175 176
+ 2.326 2 3 cbr 1000 ------- 2 1.0 5.0 276 277
d 2.326 2 3 cbr 1000 ------- 2 1.0 5.0 276 277
- 2.326 2 3 cbr 1000 ------- 2 1.0 5.0 179 180
+ 2.334 2 3 cbr 1000 ------- 2 1.0 5.0 277 278
r 2.336 2 3 cbr 1000 ------- 2 1.0 5.0 177 178
+ 2.342 2 3 cbr 1000 ------- 2 1.0 5.0 278 279
d 2.342 2 3 cbr 1000 ------- 2 1.0 5.0 278 279
- 2.342 2 3 cbr 1000 ------- 2 1.0 5.0 181 182
+ 2.35 2 3 cbr 1000 ------- 2 1.0 5.0 279 280
r 2.352 2 3 cbr 1000 ------- 2 1.0 5.0 179 180
+ 2.358 2 3 cbr 1000 ------- 2 1.0 5.0 280 281
d 2.358 2 3 cbr 1000 ------- 2 1.0 5.0 280 281
- 2.358 2 3 cbr 1000 ------- 2 1.0 5.0 183 184