+ 0.118 2 3 cbr 1000 ------- 2 1.0 5.0 0 0
- 0.118 2 3 cbr 1000 ------- 2 1.0 5.0 0 0
+ 0.126 2 3 cbr 1000 ------- 2 1.0 5.0 1 1
- 0.126 2 3 cbr 1000 ------- 2 1.0 5.0 1 1
+ 0.134 2 3 cbr 1000 ------- 2 1.0 5.0 2 2
- 0.134 2 3 cbr 1000 ------- 2 1.0 5.0 2 2
r 0.136 2 3 cbr 1000 ------- 2 1.0 5.0 0 0
+ 0.142 2 3 cbr 1000 ------- 2 1.0 5.0 3 3
- 0.142 2 3 cbr 1000 ------- 2 1.0 5.0 3 3
r 0.144 2 3 cbr 1000 ------- 2 1.0 5.0 1 1
+ 0.15 2 3 cbr 1000 ------- 2 1.0 5.0 4 4
- 0.15 2 3 cbr 1000 ------- 2 1.0 5.0 4 4
r 0.152 2 3 cbr 1000 ------- 2 1.0 5.0 2 2
+ 0.158 2 3 cbr 1000 ------- 2 1.0 5.0 5 5
- 0.158 2 3 cbr 1000 ------- 2 1.0 5.0 5 5
r 0.16 2 3 cbr 1000 ------- 2 1.0 5.0 3 3
+ 0.166 2 3 cbr 1000 ------- 2 1.0 5.0 6 6
- 0.166 2 3 cbr 1000 ------- 2 1.0 5.0 6 6
r 0.168 2 3 cbr 1000 ------- 2 1.0 5.0 4 4
+ 0.174 2 3 cbr 1000 ------- 2 1.0 5.0 7 7
- 0.174 2 3 cbr 1000 ------- 2 1.0 5.0 7 7
r 0.176 2 3 cbr 1000 ------- 2 1.0 5.0 5 5
+ 0.182 2 3 cbr 1000 ------- 2 1.0 5.0 8 8
- 0.182 2 3 cbr 1000 ------- 2 1.0 5.0 8 8
r 0.184 2 3 cbr 1000 ------- 2 1.0 5.0 6 6
+ 0.19 2 3 cbr 1000 ------- 2 1.0 5.0 9 9
- 0.19 2 3 cbr 1000 ------- 2 1.0 5.0 9 9
r 0.192 2 3 cbr 1000 ------- 2 1.0 5.0 7 7
+ 0.198 2 3 cbr 1000 ------- 2 1.0 5.0 10 10
- 0.198 2 3 cbr 1000 ------- 2 1.0 5.0 10 10
r 0.2 2 3 cbr 1000 ------- 2 1.0 5.0 8 8
+ 0.206 2 3 cbr 1000 ------- 2 1.0 5.0 11 11
- 0.206 2 3 cbr 1000 ------- 2 1.0 5.0 11 11
r 0.208 2 3 cbr 1000 ------- 2 1.0 5.0 9 9
+ 0.214 2 3 cbr 1000 ------- 2 1.0 5.0 12 12
- 0.214 2 3 cbr 1000 ------- 2 1.0 5.0 12 12
r 0.216 2 3 cbr 1000 ------- 2 1.0 5.0 10 10
+ 0.222 2 3 cbr 1000 ------- 2 1.0 5.0 13 13
- 0.222 2 3 cbr 1000 ------- 2 1.0 5.0 13 13
r 0.224 2 3 cbr 1000 ------- 2 1.0 5.0 11 11
+ 0.23 2 3 cbr 1000 ------- 2 1.0 5.0 14 14
- 0.23 2 3 cbr 1000 ------- 2 1.0 5.0 14 14
r 0.232 2 3 cbr 1000 ------- 2 1.0 5.0 12 12
+ 0.238 2 3 cbr 1000 ------- 2 1.0 5.0 15 15
- 0.238 2 3 cbr 1000 ------- 2 1.0 5.0 15 15
r 0.24 2 3 cbr 1000 ------- 2 1.0 5.0 13 13
+ 0.246 2 3 cbr 1000 ------- 2 1.0 5.0 16 16
- 0.246 2 3 cbr 1000 ------- 2 1.0 5.0 16 16
r 0.248 2 3 cbr 1000 ------- 2 1.0 5.0 14 14
+ 0.254 2 3 cbr 1000 ------- 2 1.0 5.0 17 17
- 0.254 2 3 cbr 1000 ------- 2 1.0 5.0 17 17
r 0.256 2 3 cbr 1000 ------- 2 1.0 5.0 15 15
+ 0.262 2 3 cbr 1000 ------- 2 1.0 5.0 18 18
- 0.262 2 3 cbr 1000 ------- 2 1.0 5.0 18 18
r 0.264 2 3 cbr 1000 ------- 2 1.0 5.0 16 16
+ 0.27 2 3 cbr 1000 ------- 2 1.0 5.0 19 19
- 0.27 2 3 cbr 1000 ------- 2 1.0 5.0 19 19
r 0.272 2 3 cbr 1000 ------- 2 1.0 5.0 17 17
+ 0.278 2 3 cbr 1000 ------- 2 1.0 5.0 20 20
- 0.278 2 3 cbr 1000 ------- 2 1.0 5.0 20 20
r 0.28 2 3 cbr 1000 ------- 2 1.0 5.0 18 18
+ 0.286 2 3 cbr 1000 ------- 2 1.0 5.0 21 21
- 0.286 2 3 cbr 1000 ------- 2 1.0 5.0 21 21
r 0.288 2 3 cbr 1000 ------- 2 1.0 5.0 19 19
+ 0.294 2 3 cbr 1000 ------- 2 1.0 5.0 22 22
- 0.294 2 3 cbr 1000 ------- 2 1.0 5.0 22 22
r 0.296 2 3 cbr 1000 ------- 2 1.0 5.0 20 20
+ 0.302 2 3 cbr 1000 ------- 2 1.0 5.0 23 23
- 0.302 2 3 cbr 1000 ------- 2 1.0 5.0 23 23
r 0.304 2 3 cbr 1000 ------- 2 1.0 5.0 21 21
+ 0.31 2 3 cbr 1000 ------- 2 1.0 5.0 24 24
- 0.31 2 3 cbr 1000 ------- 2 1.0 5.0 24 24
r 0.312 2 3 cbr 1000 ------- 2 1.0 5.0 22 22
+ 0.318 2 3 cbr 1000 ------- 2 1.0 5.0 25 25
- 0.318 2 3 cbr 1000 ------- 2 1.0 5.0 25 25
r 0.32 2 3 cbr 1000 ------- 2 1.0 5.0 23 23
+ 0.326 2 3 cbr 1000 ------- 2 1.0 5.0 26 26
- 0.326 2 3 cbr 1000 ------- 2 1.0 5.0 26 26
r 0.328 2 3 cbr 1000 ------- 2 1.0 5.0 24 24
+ 0.334 2 3 cbr 1000 ------- 2 1.0 5.0 27 27
- 0.334 2 3 cbr 1000 ------- 2 1.0 5.0 27 27
r 0.336 2 3 cbr 1000 ------- 2 1.0 5.0 25 25
+ 0.342 2 3 cbr 1000 ------- 2 1.0 5.0 28 28
- 0.342 2 3 cbr 1000 ------- 2 1.0 5.0 28 28
r 0.344 2 3 cbr 1000 ------- 2 1.0 5.0 26 26
+ 0.35 2 3 cbr 1000 ------- 2 1.0 5.0 29 29
- 0.35 2 3 cbr 1000 ------- 2 1.0 5.0 29 29
r 0.352 2 3 cbr 1000 ------- 2 1.0 5.0 27 27
+ 0.358 2 3 cbr 1000 ------- 2 1.0 5.0 30 30
- 0.358 2 3 cbr 1000 ------- 2 1.0 5.0 30 30
r 0.36 2 3 cbr 1000 ------- 2 1.0 5.0 28 28
+ 0.366 2 3 cbr 1000 ------- 2 1.0 5.0 31 31
- 0.366 2 3 cbr 1000 ------- 2 1.0 5.0 31 31
r 0.368 2 3 cbr 1000 ------- 2 1.0 5.0 29 29
+ 0.374 2 3 cbr 1000 ------- 2 1.0 5.0 32 32
- 0.374 2 3 cbr 1000 ------- 2 1.0 5.0 32 32
r 0.376 2 3 cbr 1000 ------- 2 1.0 5.0 30 30
+ 0.382 2 3 cbr 1000 ------- 2 1.0 5.0 33 33
- 0.382 2 3 cbr 1000 ------- 2 1.0 5.0 33 33
r 0.384 2 3 cbr 1000 ------- 2 1.0 5.0 31 31
+ 0.39 2 3 cbr 1000 ------- 2 1.0 5.0 34 34
- 0.39 2 3 cbr 1000 ------- 2 1.0 5.0 34 34
r 0.392 2 3 cbr 1000 ------- 2 1.0 5.0 32 32
+ 0.398 2 3 cbr 1000 ------- 2 1.0 5.0 35 35
- 0.398 2 3 cbr 1000 ------- 2 1.0 5.0 35 35
r 0.4 2 3 cbr 1000 ------- 2 1.0 5.0 33 33
+ 0.406 2 3 cbr 1000 ------- 2 1.0 5.0 36 36
- 0.406 2 3 cbr 1000 ------- 2 1.0 5.0 36 36
r 0.408 2 3 cbr 1000 ------- 2 1.0 5.0 34 34
+ 0.414 2 3 cbr 1000 ------- 2 1.0 5.0 37 37
- 0.414 2 3 cbr 1000 ------- 2 1.0 5.0 37 37
r 0.416 2 3 cbr 1000 ------- 2 1.0 5.0 35 35
+ 0.422 2 3 cbr 1000 ------- 2 1.0 5.0 38 38
- 0.422 2 3 cbr 1000 ------- 2 1.0 5.0 38 38
r 0.424 2 3 cbr 1000 ------- 2 1.0 5.0 36 36
+ 0.43 2 3 cbr 1000 ------- 2 1.0 5.0 39 39
- 0.43 2 3 cbr 1000 ------- 2 1.0 5.0 39 39
r 0.432 2 3 cbr 1000 ------- 2 1.0 5.0 37 37
+ 0.438 2 3 cbr 1000 ------- 2 1.0 5.0 40 40
- 0.438 2 3 cbr 1000 ------- 2 1.0 5.0 40 40
r 0.44 2 3 cbr 1000 ------- 2 1.0 5.0 38 38
+ 0.446 2 3 cbr 1000 ------- 2 1.0 5.0 41 41
- 0.446 2 3 cbr 1000 ------- 2 1.0 5.0 41 41
r 0.448 2 3 cbr 1000 ------- 2 1.0 5.0 39 39
+ 0.454 2 3 cbr 1000 ------- 2 1.0 5.0 42 42
- 0.454 2 3 cbr 1000 ------- 2 1.0 5.0 42 42
r 0.456 2 3 cbr 1000 ------- 2 1.0 5.0 40 40
+ 0.462 2 3 cbr 1000 ------- 2 1.0 5.0 43 43
- 0.462 2 3 cbr 1000 ------- 2 1.0 5.0 43 43
r 0.464 2 3 cbr 1000 ------- 2 1.0 5.0 41 41
+ 0.47 2 3 cbr 1000 ------- 2 1.0 5.0 44 44
- 0.47 2 3 cbr 1000 ------- 2 1.0 5.0 44 44
r 0.472 2 3 cbr 1000 ------- 2 1.0 5.0 42 42
+ 0.478 2 3 cbr 1000 ------- 2 1.0 5.0 45 45
- 0.478 2 3 cbr 1000 ------- 2 1.0 5.0 45 45
r 0.48 2 3 cbr 1000 ------- 2 1.0 5.0 43 43
+ 0.486 2 3 cbr 1000 ------- 2 1.0 5.0 46 46
- 0.486 2 3 cbr 1000 ------- 2 1.0 5.0 46 46
r 0.488 2 3 cbr 1000 ------- 2 1.0 5.0 44 44
+ 0.494 2 3 cbr 1000 ------- 2 1.0 5.0 47 47
- 0.494 2 3 cbr 1000 ------- 2 1.0 5.0 47 47
r 0.496 2 3 cbr 1000 ------- 2 1.0 5.0 45 45
+ 0.502 2 3 cbr 1000 ------- 2 1.0 5.0 48 48
- 0.502 2 3 cbr 1000 ------- 2 1.0 5.0 48 48
r 0.504 2 3 cbr 1000 ------- 2 1.0 5.0 46 46
+ 0.51 2 3 cbr 1000 ------- 2 1.0 5.0 49 49
- 0.51 2 3 cbr 1000 ------- 2 1.0 5.0 49 49
r 0.512 2 3 cbr 1000 ------- 2 1.0 5.0 47 47
+ 0.518 2 3 cbr 1000 ------- 2 1.0 5.0 50 50
- 0.518 2 3 cbr 1000 ------- 2 1.0 5.0 50 50
r 0.52 2 3 cbr 1000 ------- 2 1.0 5.0 48 48
+ 0.526 2 3 cbr 1000 ------- 2 1.0 5.0 51 51
- 0.526 2 3 cbr 1000 ------- 2 1.0 5.0 51 51
r 0.528 2 3 cbr 1000 ------- 2 1.0 5.0 49 49
+ 0.534 2 3 cbr 1000 ------- 2 1.0 5.0 52 52
- 0.534 2 3 cbr 1000 ------- 2 1.0 5.0 52 52
r 0.536 2 3 cbr 1000 ------- 2 1.0 5.0 50 50
+ 0.542 2 3 cbr 1000 ------- 2 1.0 5.0 53 53
- 0.542 2 3 cbr 1000 ------- 2 1.0 5.0 53 53
r 0.544 2 3 cbr 1000 ------- 2 1.0 5.0 51 51
+ 0.55 2 3 cbr 1000 ------- 2 1.0 5.0 54 54
- 0.55 2 3 cbr 1000 ------- 2 1.0 5.0 54 54
r 0.552 2 3 cbr 1000 ------- 2 1.0 5.0 52 52
+ 0.558 2 3 cbr 1000 ------- 2 1.0 5.0 55 55
- 0.558 2 3 cbr 1000 ------- 2 1.0 5.0 55 55
r 0.56 2 3 cbr 1000 ------- 2 1.0 5.0 53 53
+ 0.566 2 3 cbr 1000 ------- 2 1.0 5.0 56 56
- 0.566 2 3 cbr 1000 ------- 2 1.0 5.0 56 56
r 0.568 2 3 cbr 1000 ------- 2 1.0 5.0 54 54
+ 0.574 2 3 cbr 1000 ------- 2 1.0 5.0 57 57
- 0.574 2 3 cbr 1000 ------- 2 1.0 5.0 57 57
r 0.576 2 3 cbr 1000 ------- 2 1.0 5.0 55 55
+ 0.582 2 3 cbr 1000 ------- 2 1.0 5.0 58 58
- 0.582 2 3 cbr 1000 ------- 2 1.0 5.0 58 58
r 0.584 2 3 cbr 1000 ------- 2 1.0 5.0 56 56
+ 0.59 2 3 cbr 1000 ------- 2 1.0 5.0 59 59
- 0.59 2 3 cbr 1000 ------- 2 1.0 5.0 59 59
r 0.592 2 3 cbr 1000 ------- 2 1.0 5.0 57 57
+ 0.598 2 3 cbr 1000 ------- 2 1.0 5.0 60 60
- 0.598 2 3 cbr 1000 ------- 2 1.0 5.0 60 60
r 0.6 2 3 cbr 1000 ------- 2 1.0 5.0 58 58
+ 0.606 2 3 cbr 1000 ------- 2 1.0 5.0 61 61
- 0.606 2 3 cbr 1000 ------- 2 1.0 5.0 61 61
r 0.608 2 3 cbr 1000 ------- 2 1.0 5.0 59 59
+ 0.614 2 3 cbr 1000 ------- 2 1.0 5.0 62 62
- 0.614 2 3 cbr 1000 ------- 2 1.0 5.0 62 62
r 0.616 2 3 cbr 1000 ------- 2 1.0 5.0 60 60
+ 0.622 2 3 cbr 1000 ------- 2 1.0 5.0 63 63
- 0.622 2 3 cbr 1000 ------- 2 1.0 5.0 63 63
r 0.624 2 3 cbr 1000 ------- 2 1.0 5.0 61 61
+ 0.63 2 3 cbr 1000 ------- 2 1.0 5.0 64 64
- 0.63 2 3 cbr 1000 ------- 2 1.0 5.0 64 64
r 0.632 2 3 cbr 1000 ------- 2 1.0 5.0 62 62
+ 0.638 2 3 cbr 1000 ------- 2 1.0 5.0 65 65
- 0.638 2 3 cbr 1000 ------- 2 1.0 5.0 65 65
r 0.64 2 3 cbr 1000 ------- 2 1.0 5.0 63 63
+ 0.646 2 3 cbr 1000 ------- 2 1.0 5.0 66 66
- 0.646 2 3 cbr 1000 ------- 2 1.0 5.0 66 66
r 0.648 2 3 cbr 1000 ------- 2 1.0 5.0 64 64
+ 0.654 2 3 cbr 1000 ------- 2 1.0 5.0 67 67
- 0.654 2 3 cbr 1000 ------- 2 1.0 5.0 67 67
r 0.656 2 3 cbr 1000 ------- 2 1.0 5.0 65 65
+ 0.662 2 3 cbr 1000 ------- 2 1.0 5.0 68 68
- 0.662 2 3 cbr 1000 ------- 2 1.0 5.0 68 68
r 0.664 2 3 cbr 1000 ------- 2 1.0 5.0 66 66
+ 0.67 2 3 cbr 1000 ------- 2 1.0 5.0 69 69
- 0.67 2 3 cbr 1000 ------- 2 1.0 5.0 69 69
r 0.672 2 3 cbr 1000 ------- 2 1.0 5.0 67 67
+ 0.678 2 3 cbr 1000 ------- 2 1.0 5.0 70 70
- 0.678 2 3 cbr 1000 ------- 2 1.0 5.0 70 70
r 0.68 2 3 cbr 1000 ------- 2 1.0 5.0 68 68
+ 0.686 2 3 cbr 1000 ------- 2 1.0 5.0 71 71
- 0.686 2 3 cbr 1000 ------- 2 1.0 5.0 71 71
r 0.688 2 3 cbr 1000 ------- 2 1.0 5.0 69 69
+ 0.694 2 3 cbr 1000 ------- 2 1.0 5.0 72 72
- 0.694 2 3 cbr 1000 ------- 2 1.0 5.0 72 72
r 0.696 2 3 cbr 1000 ------- 2 1.0 5.0 70 70
+ 0.702 2 3 cbr 1000 ------- 2 1.0 5.0 73 73
- 0.702 2 3 cbr 1000 ------- 2 1.0 5.0 73 73
r 0.704 2 3 cbr 1000 ------- 2 1.0 5.0 71 71
+ 0.71 2 3 cbr 1000 ------- 2 1.0 5.0 74 74
- 0.71 2 3 cbr 1000 ------- 2 1.0 5.0 74 74
r 0.712 2 3 cbr 1000 ------- 2 1.0 5.0 72 72
+ 0.718 2 3 cbr 1000 ------- 2 1.0 5.0 75 75
- 0.718 2 3 cbr 1000 ------- 2 1.0 5.0 75 75
r 0.72 2 3 cbr 1000 ------- 2 1.0 5.0 73 73
+ 0.726 2 3 cbr 1000 ------- 2 1.0 5.0 76 76
- 0.726 2 3 cbr 1000 ------- 2 1.0 5.0 76 76
r 0.728 2 3 cbr 1000 ------- 2 1.0 5.0 74 74
+ 0.734 2 3 cbr 1000 ------- 2 1.0 5.0 77 77
- 0.734 2 3 cbr 1000 ------- 2 1.0 5.0 77 77
r 0.736 2 3 cbr 1000 ------- 2 1.0 5.0 75 75
+ 0.742 2 3 cbr 1000 ------- 2 1.0 5.0 78 78
- 0.742 2 3 cbr 1000 ------- 2 1.0 5.0 78 78
r 0.744 2 3 cbr 1000 ------- 2 1.0 5.0 76 76
+ 0.75 2 3 cbr 1000 ------- 2 1.0 5.0 79 79
- 0.75 2 3 cbr 1000 ------- 2 1.0 5.0 79 79
r 0.752 2 3 cbr 1000 ------- 2 1.0 5.0 77 77
+ 0.758 2 3 cbr 1000 ------- 2 1.0 5.0 80 80
- 0.758 2 3 cbr 1000 ------- 2 1.0 5.0 80 80
r 0.76 2 3 cbr 1000 ------- 2 1.0 5.0 78 78
+ 0.766 2 3 cbr 1000 ------- 2 1.0 5.0 81 81
- 0.766 2 3 cbr 1000 ------- 2 1.0 5.0 81 81
r 0.768 2 3 cbr 1000 ------- 2 1.0 5.0 79 79
+ 0.774 2 3 cbr 1000 ------- 2 1.0 5.0 82 82
- 0.774 2 3 cbr 1000 ------- 2 1.0 5.0 82 82
r 0.776 2 3 cbr 1000 ------- 2 1.0 5.0 80 80
+ 0.782 2 3 cbr 1000 ------- 2 1.0 5.0 83 83
- 0.782 2 3 cbr 1000 ------- 2 1.0 5.0 83 83
r 0.784 2 3 cbr 1000 ------- 2 1.0 5.0 81 81
+ 0.79 2 3 cbr 1000 ------- 2 1.0 5.0 84 84
- 0.79 2 3 cbr 1000 ------- 2 1.0 5.0 84 84
r 0.792 2 3 cbr 1000 ------- 2 1.0 5.0 82 82
+ 0.798 2 3 cbr 1000 ------- 2 1.0 5.0 85 85
- 0.798 2 3 cbr 1000 ------- 2 1.0 5.0 85 85
r 0.8 2 3 cbr 1000 ------- 2 1.0 5.0 83 83
+ 0.806 2 3 cbr 1000 ------- 2 1.0 5.0 86 86
- 0.806 2 3 cbr 1000 ------- 2 1.0 5.0 86 86
r 0.808 2 3 cbr 1000 ------- 2 1.0 5.0 84 84
+ 0.814 2 3 cbr 1000 ------- 2 1.0 5.0 87 87
- 0.814 2 3 cbr 1000 ------- 2 1.0 5.0 87 87
r 0.816 2 3 cbr 1000 ------- 2 1.0 5.0 85 85
+ 0.822 2 3 cbr 1000 ------- 2 1.0 5.0 88 88
- 0.822 2 3 cbr 1000 ------- 2 1.0 5.0 88 88
r 0.824 2 3 cbr 1000 ------- 2 1.0 5.0 86 86
+ 0.83 2 3 cbr 1000 ------- 2 1.0 5.0 89 89
- 0.83 2 3 cbr 1000 ------- 2 1.0 5.0 89 89
r 0.832 2 3 cbr 1000 ------- 2 1.0 5.0 87 87
+ 0.838 2 3 cbr 1000 ------- 2 1.0 5.0 90 90
- 0.838 2 3 cbr 1000 ------- 2 1.0 5.0 90 90
r 0.84 2 3 cbr 1000 ------- 2 1.0 5.0 88 88
+ 0.846 2 3 cbr 1000 ------- 2 1.0 5.0 91 91
- 0.846 2 3 cbr 1000 ------- 2 1.0 5.0 91 91
r 0.848 2 3 cbr 1000 ------- 2 1.0 5.0 89 89
+ 0.854 2 3 cbr 1000 ------- 2 1.0 5.0 92 92
- 0.854 2 3 cbr 1000 ------- 2 1.0 5.0 92 92
r 0.856 2 3 cbr 1000 ------- 2 1.0 5.0 90 90
+ 0.862 2 3 cbr 1000 ------- 2 1.0 5.0 93 93
- 0.862 2 3 cbr 1000 ------- 2 1.0 5.0 93 93
r 0.864 2 3 cbr 1000 ------- 2 1.0 5.0 91 91
+ 0.87 2 3 cbr 1000 ------- 2 1.0 5.0 94 94
- 0.87 2 3 cbr 1000 ------- 2 1.0 5.0 94 94
r 0.872 2 3 cbr 1000 ------- 2 1.0 5.0 92 92
+ 0.878 2 3 cbr 1000 ------- 2 1.0 5.0 95 95
- 0.878 2 3 cbr 1000 ------- 2 1.0 5.0 95 95
r 0.88 2 3 cbr 1000 ------- 2 1.0 5.0 93 93
+ 0.886 2 3 cbr 1000 ------- 2 1.0 5.0 96 96
- 0.886 2 3 cbr 1000 ------- 2 1.0 5.0 96 96
r 0.888 2 3 cbr 1000 ------- 2 1.0 5.0 94 94
+ 0.894 2 3 cbr 1000 ------- 2 1.0 5.0 97 97
- 0.894 2 3 cbr 1000 ------- 2 1.0 5.0 97 97
r 0.896 2 3 cbr 1000 ------- 2 1.0 5.0 95 95
+ 0.902 2 3 cbr 1000 ------- 2 1.0 5.0 98 98
- 0.902 2 3 cbr 1000 ------- 2 1.0 5.0 98 98
r 0.904 2 3 cbr 1000 ------- 2 1.0 5.0 96 96
+ 0.91 2 3 cbr 1000 ------- 2 1.0 5.0 99 99
- 0.91 2 3 cbr 1000 ------- 2 1.0 5.0 99 99
r 0.912 2 3 cbr 1000 ------- 2 1.0 5.0 97 97
+ 0.918 2 3 cbr 1000 ------- 2 1.0 5.0 100 100
- 0.918 2 3 cbr 1000 ------- 2 1.0 5.0 100 100
r 0.92 2 3 cbr 1000 ------- 2 1.0 5.0 98 98
+ 0.926 2 3 cbr 1000 ------- 2 1.0 5.0 101 101
- 0.926 2 3 cbr 1000 ------- 2 1.0 5.0 101 101
r 0.928 2 3 cbr 1000 ------- 2 1.0 5.0 99 99
+ 0.934 2 3 cbr 1000 ------- 2 1.0 5.0 102 102
- 0.934 2 3 cbr 1000 ------- 2 1.0 5.0 102 102
r 0.936 2 3 cbr 1000 ------- 2 1.0 5.0 100 100
+ 0.942 2 3 cbr 1000 ------- 2 1.0 5.0 103 103
- 0.942 2 3 cbr 1000 ------- 2 1.0 5.0 103 103
r 0.944 2 3 cbr 1000 ------- 2 1.0 5.0 101 101
+ 0.95 2 3 cbr 1000 ------- 2 1.0 5.0 104 104
- 0.95 2 3 cbr 1000 ------- 2 1.0 5.0 104 104
r 0.952 2 3 cbr 1000 ------- 2 1.0 5.0 102 102
+ 0.958 2 3 cbr 1000 ------- 2 1.0 5.0 105 105
- 0.958 2 3 cbr 1000 ------- 2 1.0 5.0 105 105
r 0.96 2 3 cbr 1000 ------- 2 1.0 5.0 103 103
+ 0.966 2 3 cbr 1000 ------- 2 1.0 5.0 106 106
- 0.966 2 3 cbr 1000 ------- 2 1.0 5.0 106 106
r 0.968 2 3 cbr 1000 ------- 2 1.0 5.0 104 104
+ 0.974 2 3 cbr 1000 ------- 2 1.0 5.0 107 107
- 0.974 2 3 cbr 1000 ------- 2 1.0 5.0 107 107
r 0.976 2 3 cbr 1000 ------- 2 1.0 5.0 105 105
+ 0.982 2 3 cbr 1000 ------- 2 1.0 5.0 108 108
- 0.982 2 3 cbr 1000 ------- 2 1.0 5.0 108 108
r 0.984 2 3 cbr 1000 ------- 2 1.0 5.0 106 106
+ 0.99 2 3 cbr 1000 ------- 2 1.0 5.0 109 109
- 0.99 2 3 cbr 1000 ------- 2 1.0 5.0 109 109
r 0.992 2 3 cbr 1000 ------- 2 1.0 5.0 107 107
+ 0.998 2 3 cbr 1000 ------- 2 1.0 5.0 110 110
- 0.998 2 3 cbr 1000 ------- 2 1.0 5.0 110 110
r 1 2 3 cbr 1000 ------- 2 1.0 5.0 108 108
+ 1.006 2 3 cbr 1000 ------- 2 1.0 5.0 111 111
- 1.006 2 3 cbr 1000 ------- 2 1.0 5.0 111 111
r 1.008 2 3 cbr 1000 ------- 2 1.0 5.0 109 109
+ 1.01032 2 3 tcp 40 ------- 1 0.0 4.0 0 113
+ 1.014 2 3 cbr 1000 ------- 2 1.0 5.0 112 112
- 1.014 2 3 tcp 40 ------- 1 0.0 4.0 0 113
- 1.01432 2 3 cbr 1000 ------- 2 1.0 5.0 112 112
r 1.016 2 3 cbr 1000 ------- 2 1.0 5.0 110 110
+ 1.022 2 3 cbr 1000 ------- 2 1.0 5.0 113 114
- 1.02232 2 3 cbr 1000 ------- 2 1.0 5.0 113 114
r 1.024 2 3 cbr 1000 ------- 2 1.0 5.0 111 111
r 1.02432 2 3 tcp 40 ------- 1 0.0 4.0 0 113
+ 1.03 2 3 cbr 1000 ------- 2 1.0 5.0 114 115
- 1.03032 2 3 cbr 1000 ------- 2 1.0 5.0 114 115
r 1.03232 2 3 cbr 1000 ------- 2 1.0 5.0 112 112
+ 1.038 2 3 cbr 1000 ------- 2 1.0 5.0 115 116
- 1.03832 2 3 cbr 1000 ------- 2 1.0 5.0 115 116
r 1.04032 2 3 cbr 1000 ------- 2 1.0 5.0 113 114
+ 1.046 2 3 cbr 1000 ------- 2 1.0 5.0 116 117
- 1.04632 2 3 cbr 1000 ------- 2 1.0 5.0 116 117
r 1.04832 2 3 cbr 1000 ------- 2 1.0 5.0 114 115
+ 1.054 2 3 cbr 1000 ------- 2 1.0 5.0 117 119
- 1.05432 2 3 cbr 1000 ------- 2 1.0 5.0 117 119
r 1.05632 2 3 cbr 1000 ------- 2 1.0 5.0 115 116
+ 1.062 2 3 cbr 1000 ------- 2 1.0 5.0 118 120
- 1.06232 2 3 cbr 1000 ------- 2 1.0 5.0 118 120
r 1.06432 2 3 cbr 1000 ------- 2 1.0 5.0 116 117
+ 1.07 2 3 cbr 1000 ------- 2 1.0 5.0 119 121
- 1.07032 2 3 cbr 1000 ------- 2 1.0 5.0 119 121
r 1.07232 2 3 cbr 1000 ------- 2 1.0 5.0 117 119
+ 1.078 2 3 cbr 1000 ------- 2 1.0 5.0 120 122
- 1.07832 2 3 cbr 1000 ------- 2 1.0 5.0 120 122
r 1.08032 2 3 cbr 1000 ------- 2 1.0 5.0 118 120
+ 1.08392 2 3 tcp 1040 ------- 1 0.0 4.0 1 123
+ 1.086 2 3 cbr 1000 ------- 2 1.0 5.0 121 125
- 1.08632 2 3 tcp 1040 ------- 1 0.0 4.0 1 123
r 1.08832 2 3 cbr 1000 ------- 2 1.0 5.0 119 121
+ 1.09224 2 3 tcp 1040 ------- 1 0.0 4.0 2 124
+ 1.094 2 3 cbr 1000 ------- 2 1.0 5.0 122 126
- 1.09464 2 3 cbr 1000 ------- 2 1.0 5.0 121 125
r 1.09632 2 3 cbr 1000 ------- 2 1.0 5.0 120 122
+ 1.102 2 3 cbr 1000 ------- 2 1.0 5.0 123 127
- 1.10264 2 3 tcp 1040 ------- 1 0.0 4.0 2 124
r 1.10464 2 3 tcp 1040 ------- 1 0.0 4.0 1 123
+ 1.11 2 3 cbr 1000 ------- 2 1.0 5.0 124 128
- 1.11096 2 3 cbr 1000 ------- 2 1.0 5.0 122 126
r 1.11264 2 3 cbr 1000 ------- 2 1.0 5.0 121 125
+ 1.118 2 3 cbr 1000 ------- 2 1.0 5.0 125 129
- 1.11896 2 3 cbr 1000 ------- 2 1.0 5.0 123 127
r 1.12096 2 3 tcp 1040 ------- 1 0.0 4.0 2 124
+ 1.126 2 3 cbr 1000 ------- 2 1.0 5.0 126 130
- 1.12696 2 3 cbr 1000 ------- 2 1.0 5.0 124 128
r 1.12896 2 3 cbr 1000 ------- 2 1.0 5.0 122 126
+ 1.134 2 3 cbr 1000 ------- 2 1.0 5.0 127 131
- 1.13496 2 3 cbr 1000 ------- 2 1.0 5.0 125 129
r 1.13696 2 3 cbr 1000 ------- 2 1.0 5.0 123 127
+ 1.142 2 3 cbr 1000 ------- 2 1.0 5.0 128 133
- 1.14296 2 3 cbr 1000 ------- 2 1.0 5.0 126 130
r 1.14496 2 3 cbr 1000 ------- 2 1.0 5.0 124 128
+ 1.15 2 3 cbr 1000 ------- 2 1.0 5.0 129 134
- 1.15096 2 3 cbr 1000 ------- 2 1.0 5.0 127 131
r 1.15296 2 3 cbr 1000 ------- 2 1.0 5.0 125 129
+ 1.158 2 3 cbr 1000 ------- 2 1.0 5.0 130 136
- 1.15896 2 3 cbr 1000 ------- 2 1.0 5.0 128 133
r 1.16096 2 3 cbr 1000 ------- 2 1.0 5.0 126 130
+ 1.166 2 3 cbr 1000 ------- 2 1.0 5.0 131 137
- 1.16696 2 3 cbr 1000 ------- 2 1.0 5.0 129 134
r 1.16896 2 3 cbr 1000 ------- 2 1.0 5.0 127 131
+ 1.17224 2 3 tcp 1040 ------- 1 0.0 4.0 3 138
+ 1.174 2 3 cbr 1000 ------- 2 1.0 5.0 132 140
- 1.17496 2 3 cbr 1000 ------- 2 1.0 5.0 130 136
r 1.17696 2 3 cbr 1000 ------- 2 1.0 5.0 128 133
+ 1.18056 2 3 tcp 1040 ------- 1 0.0 4.0 4 139
+ 1.182 2 3 cbr 1000 ------- 2 1.0 5.0 133 141
- 1.18296 2 3 cbr 1000 ------- 2 1.0 5.0 131 137
r 1.18496 2 3 cbr 1000 ------- 2 1.0 5.0 129 134
+ 1.18888 2 3 tcp 1040 ------- 1 0.0 4.0 5 142
+ 1.19 2 3 cbr 1000 ------- 2 1.0 5.0 134 144
- 1.19096 2 3 tcp 1040 ------- 1 0.0 4.0 3 138
r 1.19296 2 3 cbr 1000 ------- 2 1.0 5.0 130 136
+ 1.1972 2 3 tcp 1040 ------- 1 0.0 4.0 6 143
+ 1.198 2 3 cbr 1000 ------- 2 1.0 5.0 135 145
- 1.19928 2 3 cbr 1000 ------- 2 1.0 5.0 132 140
r 1.20096 2 3 cbr 1000 ------- 2 1.0 5.0 131 137
+ 1.206 2 3 cbr 1000 ------- 2 1.0 5.0 136 146
- 1.20728 2 3 tcp 1040 ------- 1 0.0 4.0 4 139
r 1.20928 2 3 tcp 1040 ------- 1 0.0 4.0 3 138
+ 1.214 2 3 cbr 1000 ------- 2 1.0 5.0 137 147
- 1.2156 2 3 cbr 1000 ------- 2 1.0 5.0 133 141
r 1.21728 2 3 cbr 1000 ------- 2 1.0 5.0 132 140
+ 1.222 2 3 cbr 1000 ------- 2 1.0 5.0 138 148
- 1.2236 2 3 tcp 1040 ------- 1 0.0 4.0 5 142
r 1.2256 2 3 tcp 1040 ------- 1 0.0 4.0 4 139
+ 1.23 2 3 cbr 1000 ------- 2 1.0 5.0 139 149
- 1.23192 2 3 cbr 1000 ------- 2 1.0 5.0 134 144
r 1.2336 2 3 cbr 1000 ------- 2 1.0 5.0 133 141
+ 1.238 2 3 cbr 1000 ------- 2 1.0 5.0 140 150
- 1.23992 2 3 tcp 1040 ------- 1 0.0 4.0 6 143
r 1.24192 2 3 tcp 1040 ------- 1 0.0 4.0 5 142
+ 1.246 2 3 cbr 1000 ------- 2 1.0 5.0 141 152
- 1.24824 2 3 cbr 1000 ------- 2 1.0 5.0 135 145
r 1.24992 2 3 cbr 1000 ------- 2 1.0 5.0 134 144
+ 1.254 2 3 cbr 1000 ------- 2 1.0 5.0 142 153
- 1.25624 2 3 cbr 1000 ------- 2 1.0 5.0 136 146
r 1.25824 2 3 tcp 1040 ------- 1 0.0 4.0 6 143
+ 1.262 2 3 cbr 1000 ------- 2 1.0 5.0 143 155
- 1.26424 2 3 cbr 1000 ------- 2 1.0 5.0 137 147
r 1.26624 2 3 cbr 1000 ------- 2 1.0 5.0 135 145
+ 1.27 2 3 cbr 1000 ------- 2 1.0 5.0 144 156
- 1.27224 2 3 cbr 1000 ------- 2 1.0 5.0 138 148
r 1.27424 2 3 cbr 1000 ------- 2 1.0 5.0 136 146
+ 1.27688 2 3 tcp 1040 ------- 1 0.0 4.0 7 157
+ 1.278 2 3 cbr 1000 ------- 2 1.0 5.0 145 159
- 1.28024 2 3 cbr 1000 ------- 2 1.0 5.0 139 149
r 1.28224 2 3 cbr 1000 ------- 2 1.0 5.0 137 147
+ 1.2852 2 3 tcp 1040 ------- 1 0.0 4.0 8 158
+ 1.286 2 3 cbr 1000 ------- 2 1.0 5.0 146 161
- 1.28824 2 3 cbr 1000 ------- 2 1.0 5.0 140 150
r 1.29024 2 3 cbr 1000 ------- 2 1.0 5.0 138 148
+ 1.29352 2 3 tcp 1040 ------- 1 0.0 4.0 9 162
+ 1.294 2 3 cbr 1000 ------- 2 1.0 5.0 147 164
- 1.29624 2 3 cbr 1000 ------- 2 1.0 5.0 141 152
r 1.29824 2 3 cbr 1000 ------- 2 1.0 5.0 139 149
+ 1.30184 2 3 tcp 1040 ------- 1 0.0 4.0 10 163
+ 1.302 2 3 cbr 1000 ------- 2 1.0 5.0 148 166
- 1.30424 2 3 cbr 1000 ------- 2 1.0 5.0 142 153
r 1.30624 2 3 cbr 1000 ------- 2 1.0 5.0 140 150
+ 1.31 2 3 cbr 1000 ------- 2 1.0 5.0 149 169
+ 1.31016 2 3 tcp 1040 ------- 1 0.0 4.0 11 167
- 1.31224 2 3 cbr 1000 ------- 2 1.0 5.0 143 155
r 1.31424 2 3 cbr 1000 ------- 2 1.0 5.0 141 152
+ 1.318 2 3 cbr 1000 ------- 2 1.0 5.0 150 170
+ 1.31848 2 3 tcp 1040 ------- 1 0.0 4.0 12 168
- 1.32024 2 3 cbr 1000 ------- 2 1.0 5.0 144 156
r 1.32224 2 3 cbr 1000 ------- 2 1.0 5.0 142 153
+ 1.326 2 3 cbr 1000 ------- 2 1.0 5.0 151 173
+ 1.3268 2 3 tcp 1040 ------- 1 0.0 4.0 13 171
- 1.32824 2 3 tcp 1040 ------- 1 0.0 4.0 7 157
r 1.33024 2 3 cbr 1000 ------- 2 1.0 5.0 143 155
+ 1.334 2 3 cbr 1000 ------- 2 1.0 5.0 152 174
+ 1.33512 2 3 tcp 1040 ------- 1 0.0 4.0 14 172
- 1.33656 2 3 cbr 1000 ------- 2 1.0 5.0 145 159
r 1.33824 2 3 cbr 1000 ------- 2 1.0 5.0 144 156
+ 1.342 2 3 cbr 1000 ------- 2 1.0 5.0 153 175
- 1.34456 2 3 tcp 1040 ------- 1 0.0 4.0 8 158
r 1.34656 2 3 tcp 1040 ------- 1 0.0 4.0 7 157
+ 1.35 2 3 cbr 1000 ------- 2 1.0 5.0 154 176
- 1.35288 2 3 cbr 1000 ------- 2 1.0 5.0 146 161
r 1.35456 2 3 cbr 1000 ------- 2 1.0 5.0 145 159
+ 1.358 2 3 cbr 1000 ------- 2 1.0 5.0 155 177
- 1.36088 2 3 tcp 1040 ------- 1 0.0 4.0 9 162
r 1.36288 2 3 tcp 1040 ------- 1 0.0 4.0 8 158
+ 1.366 2 3 cbr 1000 ------- 2 1.0 5.0 156 178
- 1.3692 2 3 cbr 1000 ------- 2 1.0 5.0 147 164
r 1.37088 2 3 cbr 1000 ------- 2 1.0 5.0 146 161
+ 1.374 2 3 cbr 1000 ------- 2 1.0 5.0 157 179
- 1.3772 2 3 tcp 1040 ------- 1 0.0 4.0 10 163
r 1.3792 2 3 tcp 1040 ------- 1 0.0 4.0 9 162
+ 1.382 2 3 cbr 1000 ------- 2 1.0 5.0 158 180
- 1.38552 2 3 cbr 1000 ------- 2 1.0 5.0 148 166
r 1.3872 2 3 cbr 1000 ------- 2 1.0 5.0 147 164
+ 1.39 2 3 cbr 1000 ------- 2 1.0 5.0 159 182
- 1.39352 2 3 cbr 1000 ------- 2 1.0 5.0 149 169
r 1.39552 2 3 tcp 1040 ------- 1 0.0 4.0 10 163
+ 1.398 2 3 cbr 1000 ------- 2 1.0 5.0 160 183
- 1.40152 2 3 tcp 1040 ------- 1 0.0 4.0 11 167
r 1.40352 2 3 cbr 1000 ------- 2 1.0 5.0 148 166
+ 1.406 2 3 cbr 1000 ------- 2 1.0 5.0 161 185
- 1.40984 2 3 cbr 1000 ------- 2 1.0 5.0 150 170
r 1.41152 2 3 cbr 1000 ------- 2 1.0 5.0 149 169
+ 1.414 2 3 cbr 1000 ------- 2 1.0 5.0 162 188
+ 1.41416 2 3 tcp 1040 ------- 1 0.0 4.0 15 186
- 1.41784 2 3 tcp 1040 ------- 1 0.0 4.0 12 168
r 1.41984 2 3 tcp 1040 ------- 1 0.0 4.0 11 167
+ 1.422 2 3 cbr 1000 ------- 2 1.0 5.0 163 190
+ 1.42248 2 3 tcp 1040 ------- 1 0.0 4.0 16 187
- 1.42616 2 3 cbr 1000 ------- 2 1.0 5.0 151 173
r 1.42784 2 3 cbr 1000 ------- 2 1.0 5.0 150 170
+ 1.43 2 3 cbr 1000 ------- 2 1.0 5.0 164 191
+ 1.4308 2 3 tcp 1040 ------- 1 0.0 4.0 17 192
- 1.43416 2 3 tcp 1040 ------- 1 0.0 4.0 13 171
r 1.43616 2 3 tcp 1040 ------- 1 0.0 4.0 12 168
+ 1.438 2 3 cbr 1000 ------- 2 1.0 5.0 165 195
+ 1.43912 2 3 tcp 1040 ------- 1 0.0 4.0 18 193
- 1.44248 2 3 cbr 1000 ------- 2 1.0 5.0 152 174
r 1.44416 2 3 cbr 1000 ------- 2 1.0 5.0 151 173
+ 1.446 2 3 cbr 1000 ------- 2 1.0 5.0 166 196
+ 1.44744 2 3 tcp 1040 ------- 1 0.0 4.0 19 197
- 1.45048 2 3 tcp 1040 ------- 1 0.0 4.0 14 172
r 1.45248 2 3 tcp 1040 ------- 1 0.0 4.0 13 171
+ 1.454 2 3 cbr 1000 ------- 2 1.0 5.0 167 199
+ 1.45576 2 3 tcp 1040 ------- 1 0.0 4.0 20 198
- 1.4588 2 3 cbr 1000 ------- 2 1.0 5.0 153 175
r 1.46048 2 3 cbr 1000 ------- 2 1.0 5.0 152 174
+ 1.462 2 3 cbr 1000 ------- 2 1.0 5.0 168 201
+ 1.46408 2 3 tcp 1040 ------- 1 0.0 4.0 21 202
- 1.4668 2 3 cbr 1000 ------- 2 1.0 5.0 154 176
r 1.4688 2 3 tcp 1040 ------- 1 0.0 4.0 14 172
+ 1.47 2 3 cbr 1000 ------- 2 1.0 5.0 169 204
+ 1.4724 2 3 tcp 1040 ------- 1 0.0 4.0 22 203
- 1.4748 2 3 cbr 1000 ------- 2 1.0 5.0 155 177
r 1.4768 2 3 cbr 1000 ------- 2 1.0 5.0 153 175
+ 1.478 2 3 cbr 1000 ------- 2 1.0 5.0 170 206
- 1.4828 2 3 cbr 1000 ------- 2 1.0 5.0 156 178
r 1.4848 2 3 cbr 1000 ------- 2 1.0 5.0 154 176
+ 1.486 2 3 cbr 1000 ------- 2 1.0 5.0 171 207
+ 1.48744 2 3 tcp 1040 ------- 1 0.0 4.0 23 208
- 1.4908 2 3 cbr 1000 ------- 2 1.0 5.0 157 179
r 1.4928 2 3 cbr 1000 ------- 2 1.0 5.0 155 177
+ 1.494 2 3 cbr 1000 ------- 2 1.0 5.0 172 211
+ 1.49576 2 3 tcp 1040 ------- 1 0.0 4.0 24 209
- 1.4988 2 3 cbr 1000 ------- 2 1.0 5.0 158 180
r 1.5008 2 3 cbr 1000 ------- 2 1.0 5.0 156 178
+ 1.502 2 3 cbr 1000 ------- 2 1.0 5.0 173 212
+ 1.50408 2 3 tcp 1040 ------- 1 0.0 4.0 25 213
- 1.5068 2 3 cbr 1000 ------- 2 1.0 5.0 159 182
r 1.5088 2 3 cbr 1000 ------- 2 1.0 5.0 157 179
+ 1.51 2 3 cbr 1000 ------- 2 1.0 5.0 174 216
+ 1.5124 2 3 tcp 1040 ------- 1 0.0 4.0 26 214
- 1.5148 2 3 cbr 1000 ------- 2 1.0 5.0 160 183
r 1.5168 2 3 cbr 1000 ------- 2 1.0 5.0 158 180
+ 1.518 2 3 cbr 1000 ------- 2 1.0 5.0 175 217
+ 1.52072 2 3 tcp 1040 ------- 1 0.0 4.0 27 218
- 1.5228 2 3 cbr 1000 ------- 2 1.0 5.0 161 185
r 1.5248 2 3 cbr 1000 ------- 2 1.0 5.0 159 182
+ 1.526 2 3 cbr 1000 ------- 2 1.0 5.0 176 220
+ 1.52904 2 3 tcp 1040 ------- 1 0.0 4.0 28 219
- 1.5308 2 3 cbr 1000 ------- 2 1.0 5.0 162 188
r 1.5328 2 3 cbr 1000 ------- 2 1.0 5.0 160 183
+ 1.534 2 3 cbr 1000 ------- 2 1.0 5.0 177 221
+ 1.53736 2 3 tcp 1040 ------- 1 0.0 4.0 29 222
- 1.5388 2 3 tcp 1040 ------- 1 0.0 4.0 15 186
r 1.5408 2 3 cbr 1000 ------- 2 1.0 5.0 161 185
+ 1.542 2 3 cbr 1000 ------- 2 1.0 5.0 178 224
+ 1.54568 2 3 tcp 1040 ------- 1 0.0 4.0 30 223
- 1.54712 2 3 cbr 1000 ------- 2 1.0 5.0 163 190
r 1.5488 2 3 cbr 1000 ------- 2 1.0 5.0 162 188
+ 1.55 2 3 cbr 1000 ------- 2 1.0 5.0 179 225
- 1.55512 2 3 tcp 1040 ------- 1 0.0 4.0 16 187
r 1.55712 2 3 tcp 1040 ------- 1 0.0 4.0 15 186
+ 1.558 2 3 cbr 1000 ------- 2 1.0 5.0 180 226
- 1.56344 2 3 cbr 1000 ------- 2 1.0 5.0 164 191
r 1.56512 2 3 cbr 1000 ------- 2 1.0 5.0 163 190
+ 1.566 2 3 cbr 1000 ------- 2 1.0 5.0 181 227
- 1.57144 2 3 tcp 1040 ------- 1 0.0 4.0 17 192
r 1.57344 2 3 tcp 1040 ------- 1 0.0 4.0 16 187
+ 1.574 2 3 cbr 1000 ------- 2 1.0 5.0 182 228
- 1.57976 2 3 cbr 1000 ------- 2 1.0 5.0 165 195
r 1.58144 2 3 cbr 1000 ------- 2 1.0 5.0 164 191
+ 1.582 2 3 cbr 1000 ------- 2 1.0 5.0 183 229
- 1.58776 2 3 tcp 1040 ------- 1 0.0 4.0 18 193
r 1.58976 2 3 tcp 1040 ------- 1 0.0 4.0 17 192
+ 1.59 2 3 cbr 1000 ------- 2 1.0 5.0 184 230
- 1.59608 2 3 cbr 1000 ------- 2 1.0 5.0 166 196
r 1.59776 2 3 cbr 1000 ------- 2 1.0 5.0 165 195
+ 1.598 2 3 cbr 1000 ------- 2 1.0 5.0 185 232
- 1.60408 2 3 tcp 1040 ------- 1 0.0 4.0 19 197
+ 1.606 2 3 cbr 1000 ------- 2 1.0 5.0 186 233
r 1.60608 2 3 tcp 1040 ------- 1 0.0 4.0 18 193
- 1.6124 2 3 cbr 1000 ------- 2 1.0 5.0 167 199
+ 1.614 2 3 cbr 1000 ------- 2 1.0 5.0 187 235
r 1.61408 2 3 cbr 1000 ------- 2 1.0 5.0 166 196
- 1.6204 2 3 tcp 1040 ------- 1 0.0 4.0 20 198
+ 1.622 2 3 cbr 1000 ------- 2 1.0 5.0 188 236
r 1.6224 2 3 tcp 1040 ------- 1 0.0 4.0 19 197
+ 1.62472 2 3 tcp 1040 ------- 1 0.0 4.0 31 237
- 1.62872 2 3 cbr 1000 ------- 2 1.0 5.0 168 201
+ 1.63 2 3 cbr 1000 ------- 2 1.0 5.0 189 240
r 1.6304 2 3 cbr 1000 ------- 2 1.0 5.0 167 199
+ 1.63304 2 3 tcp 1040 ------- 1 0.0 4.0 32 238
- 1.63672 2 3 tcp 1040 ------- 1 0.0 4.0 21 202
+ 1.638 2 3 cbr 1000 ------- 2 1.0 5.0 190 241
r 1.63872 2 3 tcp 1040 ------- 1 0.0 4.0 20 198
+ 1.64136 2 3 tcp 1040 ------- 1 0.0 4.0 33 242
- 1.64504 2 3 cbr 1000 ------- 2 1.0 5.0 169 204
+ 1.646 2 3 cbr 1000 ------- 2 1.0 5.0 191 245
r 1.64672 2 3 cbr 1000 ------- 2 1.0 5.0 168 201
+ 1.64968 2 3 tcp 1040 ------- 1 0.0 4.0 34 243
- 1.65304 2 3 tcp 1040 ------- 1 0.0 4.0 22 203
+ 1.654 2 3 cbr 1000 ------- 2 1.0 5.0 192 246
r 1.65504 2 3 tcp 1040 ------- 1 0.0 4.0 21 202
+ 1.658 2 3 tcp 1040 ------- 1 0.0 4.0 35 247
- 1.66136 2 3 cbr 1000 ------- 2 1.0 5.0 170 206
+ 1.662 2 3 cbr 1000 ------- 2 1.0 5.0 193 250
r 1.66304 2 3 cbr 1000 ------- 2 1.0 5.0 169 204
+ 1.66632 2 3 tcp 1040 ------- 1 0.0 4.0 36 248
- 1.66936 2 3 cbr 1000 ------- 2 1.0 5.0 171 207
+ 1.67 2 3 cbr 1000 ------- 2 1.0 5.0 194 251
r 1.67136 2 3 tcp 1040 ------- 1 0.0 4.0 22 203
+ 1.67464 2 3 tcp 1040 ------- 1 0.0 4.0 37 252
- 1.67736 2 3 tcp 1040 ------- 1 0.0 4.0 23 208
+ 1.678 2 3 cbr 1000 ------- 2 1.0 5.0 195 255
r 1.67936 2 3 cbr 1000 ------- 2 1.0 5.0 170 206
+ 1.68296 2 3 tcp 1040 ------- 1 0.0 4.0 38 253
- 1.68568 2 3 cbr 1000 ------- 2 1.0 5.0 172 211
+ 1.686 2 3 cbr 1000 ------- 2 1.0 5.0 196 256
r 1.68736 2 3 cbr 1000 ------- 2 1.0 5.0 171 207
+ 1.69128 2 3 tcp 1040 ------- 1 0.0 4.0 39 257
- 1.69368 2 3 tcp 1040 ------- 1 0.0 4.0 24 209
+ 1.694 2 3 cbr 1000 ------- 2 1.0 5.0 197 259
r 1.69568 2 3 tcp 1040 ------- 1 0.0 4.0 23 208
+ 1.702 2 3 cbr 1000 ------- 2 1.0 5.0 198 260
- 1.702 2 3 cbr 1000 ------- 2 1.0 5.0 173 212
r 1.70368 2 3 cbr 1000 ------- 2 1.0 5.0 172 211
+ 1.70632 2 3 tcp 1040 ------- 1 0.0 4.0 40 261
+ 1.71 2 3 cbr 1000 ------- 2 1.0 5.0 199 263
- 1.71 2 3 tcp 1040 ------- 1 0.0 4.0 25 213
r 1.712 2 3 tcp 1040 ------- 1 0.0 4.0 24 209
+ 1.718 2 3 cbr 1000 ------- 2 1.0 5.0 200 264
- 1.71832 2 3 cbr 1000 ------- 2 1.0 5.0 174 216
r 1.72 2 3 cbr 1000 ------- 2 1.0 5.0 173 212
+ 1.72264 2 3 tcp 1040 ------- 1 0.0 4.0 41 265
+ 1.726 2 3 cbr 1000 ------- 2 1.0 5.0 201 266
- 1.72632 2 3 tcp 1040 ------- 1 0.0 4.0 26 214
r 1.72832 2 3 tcp 1040 ------- 1 0.0 4.0 25 213
+ 1.734 2 3 cbr 1000 ------- 2 1.0 5.0 202 268
- 1.73464 2 3 cbr 1000 ------- 2 1.0 5.0 175 217