+ 0.118 2 3 cbr 1000 ------- 2 1.0 5.0 0 0
- 0.118 2 3 cbr 1000 ------- 2 1.0 5.0 0 0
+ 0.126 2 3 cbr 1000 ------- 2 1.0 5.0 1 1
- 0.126 2 3 cbr 1000 ------- 2 1.0 5.0 1 1
r 0.132 2 3 cbr 1000 ------- 2 1.0 5.0 0 0
+ 0.134 2 3 cbr 1000 ------- 2 1.0 5.0 2 2
- 0.134 2 3 cbr 1000 ------- 2 1.0 5.0 2 2
r 0.14 2 3 cbr 1000 ------- 2 1.0 5.0 1 1
+ 0.142 2 3 cbr 1000 ------- 2 1.0 5.0 3 3
- 0.142 2 3 cbr 1000 ------- 2 1.0 5.0 3 3
r 0.148 2 3 cbr 1000 ------- 2 1.0 5.0 2 2
+ 0.15 2 3 cbr 1000 ------- 2 1.0 5.0 4 4
- 0.15 2 3 cbr 1000 ------- 2 1.0 5.0 4 4
r 0.156 2 3 cbr 1000 ------- 2 1.0 5.0 3 3
+ 0.158 2 3 cbr 1000 ------- 2 1.0 5.0 5 5
- 0.158 2 3 cbr 1000 ------- 2 1.0 5.0 5 5
r 0.164 2 3 cbr 1000 ------- 2 1.0 5.0 4 4
+ 0.166 2 3 cbr 1000 ------- 2 1.0 5.0 6 6
- 0.166 2 3 cbr 1000 ------- 2 1.0 5.0 6 6
r 0.172 2 3 cbr 1000 ------- 2 1.0 5.0 5 5
+ 0.174 2 3 cbr 1000 ------- 2 1.0 5.0 7 7
- 0.174 2 3 cbr 1000 ------- 2 1.0 5.0 7 7
r 0.18 2 3 cbr 1000 ------- 2 1.0 5.0 6 6
+ 0.182 2 3 cbr 1000 ------- 2 1.0 5.0 8 8
- 0.182 2 3 cbr 1000 ------- 2 1.0 5.0 8 8
r 0.188 2 3 cbr 1000 ------- 2 1.0 5.0 7 7
+ 0.19 2 3 cbr 1000 ------- 2 1.0 5.0 9 9
- 0.19 2 3 cbr 1000 ------- 2 1.0 5.0 9 9
r 0.196 2 3 cbr 1000 ------- 2 1.0 5.0 8 8
+ 0.198 2 3 cbr 1000 ------- 2 1.0 5.0 10 10
- 0.198 2 3 cbr 1000 ------- 2 1.0 5.0 10 10
r 0.204 2 3 cbr 1000 ------- 2 1.0 5.0 9 9
+ 0.206 2 3 cbr 1000 ------- 2 1.0 5.0 11 11
- 0.206 2 3 cbr 1000 ------- 2 1.0 5.0 11 11
r 0.212 2 3 cbr 1000 ------- 2 1.0 5.0 10 10
+ 0.214 2 3 cbr 1000 ------- 2 1.0 5.0 12 12
- 0.214 2 3 cbr 1000 ------- 2 1.0 5.0 12 12
r 0.22 2 3 cbr 1000 ------- 2 1.0 5.0 11 11
+ 0.222 2 3 cbr 1000 ------- 2 1.0 5.0 13 13
- 0.222 2 3 cbr 1000 ------- 2 1.0 5.0 13 13
r 0.228 2 3 cbr 1000 ------- 2 1.0 5.0 12 12
+ 0.23 2 3 cbr 1000 ------- 2 1.0 5.0 14 14
- 0.23 2 3 cbr 1000 ------- 2 1.0 5.0 14 14
r 0.236 2 3 cbr 1000 ------- 2 1.0 5.0 13 13
+ 0.238 2 3 cbr 1000 ------- 2 1.0 5.0 15 15
- 0.238 2 3 cbr 1000 ------- 2 1.0 5.0 15 15
r 0.244 2 3 cbr 1000 ------- 2 1.0 5.0 14 14
+ 0.246 2 3 cbr 1000 ------- 2 1.0 5.0 16 16
- 0.246 2 3 cbr 1000 ------- 2 1.0 5.0 16 16
r 0.252 2 3 cbr 1000 ------- 2 1.0 5.0 15 15
+ 0.254 2 3 cbr 1000 ------- 2 1.0 5.0 17 17
- 0.254 2 3 cbr 1000 ------- 2 1.0 5.0 17 17
r 0.26 2 3 cbr 1000 ------- 2 1.0 5.0 16 16
+ 0.262 2 3 cbr 1000 ------- 2 1.0 5.0 18 18
- 0.262 2 3 cbr 1000 ------- 2 1.0 5.0 18 18
r 0.268 2 3 cbr 1000 ------- 2 1.0 5.0 17 17
+ 0.27 2 3 cbr 1000 ------- 2 1.0 5.0 19 19
- 0.27 2 3 cbr 1000 ------- 2 1.0 5.0 19 19
r 0.276 2 3 cbr 1000 ------- 2 1.0 5.0 18 18
+ 0.278 2 3 cbr 1000 ------- 2 1.0 5.0 20 20
- 0.278 2 3 cbr 1000 ------- 2 1.0 5.0 20 20
r 0.284 2 3 cbr 1000 ------- 2 1.0 5.0 19 19
+ 0.286 2 3 cbr 1000 ------- 2 1.0 5.0 21 21
- 0.286 2 3 cbr 1000 ------- 2 1.0 5.0 21 21
r 0.292 2 3 cbr 1000 ------- 2 1.0 5.0 20 20
+ 0.294 2 3 cbr 1000 ------- 2 1.0 5.0 22 22
- 0.294 2 3 cbr 1000 ------- 2 1.0 5.0 22 22
r 0.3 2 3 cbr 1000 ------- 2 1.0 5.0 21 21
+ 0.302 2 3 cbr 1000 ------- 2 1.0 5.0 23 23
- 0.302 2 3 cbr 1000 ------- 2 1.0 5.0 23 23
r 0.308 2 3 cbr 1000 ------- 2 1.0 5.0 22 22
+ 0.31 2 3 cbr 1000 ------- 2 1.0 5.0 24 24
- 0.31 2 3 cbr 1000 ------- 2 1.0 5.0 24 24
r 0.316 2 3 cbr 1000 ------- 2 1.0 5.0 23 23
+ 0.318 2 3 cbr 1000 ------- 2 1.0 5.0 25 25
- 0.318 2 3 cbr 1000 ------- 2 1.0 5.0 25 25
r 0.324 2 3 cbr 1000 ------- 2 1.0 5.0 24 24
+ 0.326 2 3 cbr 1000 ------- 2 1.0 5.0 26 26
- 0.326 2 3 cbr 1000 ------- 2 1.0 5.0 26 26
r 0.332 2 3 cbr 1000 ------- 2 1.0 5.0 25 25
+ 0.334 2 3 cbr 1000 ------- 2 1.0 5.0 27 27
- 0.334 2 3 cbr 1000 ------- 2 1.0 5.0 27 27
r 0.34 2 3 cbr 1000 ------- 2 1.0 5.0 26 26
+ 0.342 2 3 cbr 1000 ------- 2 1.0 5.0 28 28
- 0.342 2 3 cbr 1000 ------- 2 1.0 5.0 28 28
r 0.348 2 3 cbr 1000 ------- 2 1.0 5.0 27 27
+ 0.35 2 3 cbr 1000 ------- 2 1.0 5.0 29 29
- 0.35 2 3 cbr 1000 ------- 2 1.0 5.0 29 29
r 0.356 2 3 cbr 1000 ------- 2 1.0 5.0 28 28
+ 0.358 2 3 cbr 1000 ------- 2 1.0 5.0 30 30
- 0.358 2 3 cbr 1000 ------- 2 1.0 5.0 30 30
r 0.364 2 3 cbr 1000 ------- 2 1.0 5.0 29 29
+ 0.366 2 3 cbr 1000 ------- 2 1.0 5.0 31 31
- 0.366 2 3 cbr 1000 ------- 2 1.0 5.0 31 31
r 0.372 2 3 cbr 1000 ------- 2 1.0 5.0 30 30
+ 0.374 2 3 cbr 1000 ------- 2 1.0 5.0 32 32
- 0.374 2 3 cbr 1000 ------- 2 1.0 5.0 32 32
r 0.38 2 3 cbr 1000 ------- 2 1.0 5.0 31 31
+ 0.382 2 3 cbr 1000 ------- 2 1.0 5.0 33 33
- 0.382 2 3 cbr 1000 ------- 2 1.0 5.0 33 33
r 0.388 2 3 cbr 1000 ------- 2 1.0 5.0 32 32
+ 0.39 2 3 cbr 1000 ------- 2 1.0 5.0 34 34
- 0.39 2 3 cbr 1000 ------- 2 1.0 5.0 34 34
r 0.396 2 3 cbr 1000 ------- 2 1.0 5.0 33 33
+ 0.398 2 3 cbr 1000 ------- 2 1.0 5.0 35 35
- 0.398 2 3 cbr 1000 ------- 2 1.0 5.0 35 35
r 0.404 2 3 cbr 1000 ------- 2 1.0 5.0 34 34
+ 0.406 2 3 cbr 1000 ------- 2 1.0 5.0 36 36
- 0.406 2 3 cbr 1000 ------- 2 1.0 5.0 36 36
r 0.412 2 3 cbr 1000 ------- 2 1.0 5.0 35 35
+ 0.414 2 3 cbr 1000 ------- 2 1.0 5.0 37 37
- 0.414 2 3 cbr 1000 ------- 2 1.0 5.0 37 37
r 0.42 2 3 cbr 1000 ------- 2 1.0 5.0 36 36
+ 0.422 2 3 cbr 1000 ------- 2 1.0 5.0 38 38
- 0.422 2 3 cbr 1000 ------- 2 1.0 5.0 38 38
r 0.428 2 3 cbr 1000 ------- 2 1.0 5.0 37 37
+ 0.43 2 3 cbr 1000 ------- 2 1.0 5.0 39 39
- 0.43 2 3 cbr 1000 ------- 2 1.0 5.0 39 39
r 0.436 2 3 cbr 1000 ------- 2 1.0 5.0 38 38
+ 0.438 2 3 cbr 1000 ------- 2 1.0 5.0 40 40
- 0.438 2 3 cbr 1000 ------- 2 1.0 5.0 40 40
r 0.444 2 3 cbr 1000 ------- 2 1.0 5.0 39 39
+ 0.446 2 3 cbr 1000 ------- 2 1.0 5.0 41 41
- 0.446 2 3 cbr 1000 ------- 2 1.0 5.0 41 41
r 0.452 2 3 cbr 1000 ------- 2 1.0 5.0 40 40
+ 0.454 2 3 cbr 1000 ------- 2 1.0 5.0 42 42
- 0.454 2 3 cbr 1000 ------- 2 1.0 5.0 42 42
r 0.46 2 3 cbr 1000 ------- 2 1.0 5.0 41 41
+ 0.462 2 3 cbr 1000 ------- 2 1.0 5.0 43 43
- 0.462 2 3 cbr 1000 ------- 2 1.0 5.0 43 43
r 0.468 2 3 cbr 1000 ------- 2 1.0 5.0 42 42
+ 0.47 2 3 cbr 1000 ------- 2 1.0 5.0 44 44
- 0.47 2 3 cbr 1000 ------- 2 1.0 5.0 44 44
r 0.476 2 3 cbr 1000 ------- 2 1.0 5.0 43 43
+ 0.478 2 3 cbr 1000 ------- 2 1.0 5.0 45 45
- 0.478 2 3 cbr 1000 ------- 2 1.0 5.0 45 45
r 0.484 2 3 cbr 1000 ------- 2 1.0 5.0 44 44
+ 0.486 2 3 cbr 1000 ------- 2 1.0 5.0 46 46
- 0.486 2 3 cbr 1000 ------- 2 1.0 5.0 46 46
r 0.492 2 3 cbr 1000 ------- 2 1.0 5.0 45 45
+ 0.494 2 3 cbr 1000 ------- 2 1.0 5.0 47 47
- 0.494 2 3 cbr 1000 ------- 2 1.0 5.0 47 47
r 0.5 2 3 cbr 1000 ------- 2 1.0 5.0 46 46
+ 0.502 2 3 cbr 1000 ------- 2 1.0 5.0 48 48
- 0.502 2 3 cbr 1000 ------- 2 1.0 5.0 48 48
r 0.508 2 3 cbr 1000 ------- 2 1.0 5.0 47 47
+ 0.51 2 3 cbr 1000 ------- 2 1.0 5.0 49 49
- 0.51 2 3 cbr 1000 ------- 2 1.0 5.0 49 49
r 0.516 2 3 cbr 1000 ------- 2 1.0 5.0 48 48
+ 0.518 2 3 cbr 1000 ------- 2 1.0 5.0 50 50
- 0.518 2 3 cbr 1000 ------- 2 1.0 5.0 50 50
r 0.524 2 3 cbr 1000 ------- 2 1.0 5.0 49 49
+ 0.526 2 3 cbr 1000 ------- 2 1.0 5.0 51 51
- 0.526 2 3 cbr 1000 ------- 2 1.0 5.0 51 51
r 0.532 2 3 cbr 1000 ------- 2 1.0 5.0 50 50
+ 0.534 2 3 cbr 1000 ------- 2 1.0 5.0 52 52
- 0.534 2 3 cbr 1000 ------- 2 1.0 5.0 52 52
r 0.54 2 3 cbr 1000 ------- 2 1.0 5.0 51 51
+ 0.542 2 3 cbr 1000 ------- 2 1.0 5.0 53 53
- 0.542 2 3 cbr 1000 ------- 2 1.0 5.0 53 53
r 0.548 2 3 cbr 1000 ------- 2 1.0 5.0 52 52
+ 0.55 2 3 cbr 1000 ------- 2 1.0 5.0 54 54
- 0.55 2 3 cbr 1000 ------- 2 1.0 5.0 54 54
r 0.556 2 3 cbr 1000 ------- 2 1.0 5.0 53 53
+ 0.558 2 3 cbr 1000 ------- 2 1.0 5.0 55 55
- 0.558 2 3 cbr 1000 ------- 2 1.0 5.0 55 55
r 0.564 2 3 cbr 1000 ------- 2 1.0 5.0 54 54
+ 0.566 2 3 cbr 1000 ------- 2 1.0 5.0 56 56
- 0.566 2 3 cbr 1000 ------- 2 1.0 5.0 56 56
r 0.572 2 3 cbr 1000 ------- 2 1.0 5.0 55 55
+ 0.574 2 3 cbr 1000 ------- 2 1.0 5.0 57 57
- 0.574 2 3 cbr 1000 ------- 2 1.0 5.0 57 57
r 0.58 2 3 cbr 1000 ------- 2 1.0 5.0 56 56
+ 0.582 2 3 cbr 1000 ------- 2 1.0 5.0 58 58
- 0.582 2 3 cbr 1000 ------- 2 1.0 5.0 58 58
r 0.588 2 3 cbr 1000 ------- 2 1.0 5.0 57 57
+ 0.59 2 3 cbr 1000 ------- 2 1.0 5.0 59 59
- 0.59 2 3 cbr 1000 ------- 2 1.0 5.0 59 59
r 0.596 2 3 cbr 1000 ------- 2 1.0 5.0 58 58
+ 0.598 2 3 cbr 1000 ------- 2 1.0 5.0 60 60
- 0.598 2 3 cbr 1000 ------- 2 1.0 5.0 60 60
r 0.604 2 3 cbr 1000 ------- 2 1.0 5.0 59 59
+ 0.606 2 3 cbr 1000 ------- 2 1.0 5.0 61 61
- 0.606 2 3 cbr 1000 ------- 2 1.0 5.0 61 61
r 0.612 2 3 cbr 1000 ------- 2 1.0 5.0 60 60
+ 0.614 2 3 cbr 1000 ------- 2 1.0 5.0 62 62
- 0.614 2 3 cbr 1000 ------- 2 1.0 5.0 62 62
r 0.62 2 3 cbr 1000 ------- 2 1.0 5.0 61 61
+ 0.622 2 3 cbr 1000 ------- 2 1.0 5.0 63 63
- 0.622 2 3 cbr 1000 ------- 2 1.0 5.0 63 63
r 0.628 2 3 cbr 1000 ------- 2 1.0 5.0 62 62
+ 0.63 2 3 cbr 1000 ------- 2 1.0 5.0 64 64
- 0.63 2 3 cbr 1000 ------- 2 1.0 5.0 64 64
r 0.636 2 3 cbr 1000 ------- 2 1.0 5.0 63 63
+ 0.638 2 3 cbr 1000 ------- 2 1.0 5.0 65 65
- 0.638 2 3 cbr 1000 ------- 2 1.0 5.0 65 65
r 0.644 2 3 cbr 1000 ------- 2 1.0 5.0 64 64
+ 0.646 2 3 cbr 1000 ------- 2 1.0 5.0 66 66
- 0.646 2 3 cbr 1000 ------- 2 1.0 5.0 66 66
r 0.652 2 3 cbr 1000 ------- 2 1.0 5.0 65 65
+ 0.654 2 3 cbr 1000 ------- 2 1.0 5.0 67 67
- 0.654 2 3 cbr 1000 ------- 2 1.0 5.0 67 67
r 0.66 2 3 cbr 1000 ------- 2 1.0 5.0 66 66
+ 0.662 2 3 cbr 1000 ------- 2 1.0 5.0 68 68
- 0.662 2 3 cbr 1000 ------- 2 1.0 5.0 68 68
r 0.668 2 3 cbr 1000 ------- 2 1.0 5.0 67 67
+ 0.67 2 3 cbr 1000 ------- 2 1.0 5.0 69 69
- 0.67 2 3 cbr 1000 ------- 2 1.0 5.0 69 69
r 0.676 2 3 cbr 1000 ------- 2 1.0 5.0 68 68
+ 0.678 2 3 cbr 1000 ------- 2 1.0 5.0 70 70
- 0.678 2 3 cbr 1000 ------- 2 1.0 5.0 70 70
r 0.684 2 3 cbr 1000 ------- 2 1.0 5.0 69 69
+ 0.686 2 3 cbr 1000 ------- 2 1.0 5.0 71 71
- 0.686 2 3 cbr 1000 ------- 2 1.0 5.0 71 71
r 0.692 2 3 cbr 1000 ------- 2 1.0 5.0 70 70
+ 0.694 2 3 cbr 1000 ------- 2 1.0 5.0 72 72
- 0.694 2 3 cbr 1000 ------- 2 1.0 5.0 72 72
r 0.7 2 3 cbr 1000 ------- 2 1.0 5.0 71 71
+ 0.702 2 3 cbr 1000 ------- 2 1.0 5.0 73 73
- 0.702 2 3 cbr 1000 ------- 2 1.0 5.0 73 73
r 0.708 2 3 cbr 1000 ------- 2 1.0 5.0 72 72
+ 0.71 2 3 cbr 1000 ------- 2 1.0 5.0 74 74
- 0.71 2 3 cbr 1000 ------- 2 1.0 5.0 74 74
r 0.716 2 3 cbr 1000 ------- 2 1.0 5.0 73 73
+ 0.718 2 3 cbr 1000 ------- 2 1.0 5.0 75 75
- 0.718 2 3 cbr 1000 ------- 2 1.0 5.0 75 75
r 0.724 2 3 cbr 1000 ------- 2 1.0 5.0 74 74
+ 0.726 2 3 cbr 1000 ------- 2 1.0 5.0 76 76
- 0.726 2 3 cbr 1000 ------- 2 1.0 5.0 76 76
r 0.732 2 3 cbr 1000 ------- 2 1.0 5.0 75 75
+ 0.734 2 3 cbr 1000 ------- 2 1.0 5.0 77 77
- 0.734 2 3 cbr 1000 ------- 2 1.0 5.0 77 77
r 0.74 2 3 cbr 1000 ------- 2 1.0 5.0 76 76
+ 0.742 2 3 cbr 1000 ------- 2 1.0 5.0 78 78
- 0.742 2 3 cbr 1000 ------- 2 1.0 5.0 78 78
r 0.748 2 3 cbr 1000 ------- 2 1.0 5.0 77 77
+ 0.75 2 3 cbr 1000 ------- 2 1.0 5.0 79 79
- 0.75 2 3 cbr 1000 ------- 2 1.0 5.0 79 79
r 0.756 2 3 cbr 1000 ------- 2 1.0 5.0 78 78
+ 0.758 2 3 cbr 1000 ------- 2 1.0 5.0 80 80
- 0.758 2 3 cbr 1000 ------- 2 1.0 5.0 80 80
r 0.764 2 3 cbr 1000 ------- 2 1.0 5.0 79 79
+ 0.766 2 3 cbr 1000 ------- 2 1.0 5.0 81 81
- 0.766 2 3 cbr 1000 ------- 2 1.0 5.0 81 81
r 0.772 2 3 cbr 1000 ------- 2 1.0 5.0 80 80
+ 0.774 2 3 cbr 1000 ------- 2 1.0 5.0 82 82
- 0.774 2 3 cbr 1000 ------- 2 1.0 5.0 82 82
r 0.78 2 3 cbr 1000 ------- 2 1.0 5.0 81 81
+ 0.782 2 3 cbr 1000 ------- 2 1.0 5.0 83 83
- 0.782 2 3 cbr 1000 ------- 2 1.0 5.0 83 83
r 0.788 2 3 cbr 1000 ------- 2 1.0 5.0 82 82
+ 0.79 2 3 cbr 1000 ------- 2 1.0 5.0 84 84
- 0.79 2 3 cbr 1000 ------- 2 1.0 5.0 84 84
r 0.796 2 3 cbr 1000 ------- 2 1.0 5.0 83 83
+ 0.798 2 3 cbr 1000 ------- 2 1.0 5.0 85 85
- 0.798 2 3 cbr 1000 ------- 2 1.0 5.0 85 85
r 0.804 2 3 cbr 1000 ------- 2 1.0 5.0 84 84
+ 0.806 2 3 cbr 1000 ------- 2 1.0 5.0 86 86
- 0.806 2 3 cbr 1000 ------- 2 1.0 5.0 86 86
r 0.812 2 3 cbr 1000 ------- 2 1.0 5.0 85 85
+ 0.814 2 3 cbr 1000 ------- 2 1.0 5.0 87 87
- 0.814 2 3 cbr 1000 ------- 2 1.0 5.0 87 87
r 0.82 2 3 cbr 1000 ------- 2 1.0 5.0 86 86
+ 0.822 2 3 cbr 1000 ------- 2 1.0 5.0 88 88
- 0.822 2 3 cbr 1000 ------- 2 1.0 5.0 88 88
r 0.828 2 3 cbr 1000 ------- 2 1.0 5.0 87 87
+ 0.83 2 3 cbr 1000 ------- 2 1.0 5.0 89 89
- 0.83 2 3 cbr 1000 ------- 2 1.0 5.0 89 89
r 0.836 2 3 cbr 1000 ------- 2 1.0 5.0 88 88
+ 0.838 2 3 cbr 1000 ------- 2 1.0 5.0 90 90
- 0.838 2 3 cbr 1000 ------- 2 1.0 5.0 90 90
r 0.844 2 3 cbr 1000 ------- 2 1.0 5.0 89 89
+ 0.846 2 3 cbr 1000 ------- 2 1.0 5.0 91 91
- 0.846 2 3 cbr 1000 ------- 2 1.0 5.0 91 91
r 0.852 2 3 cbr 1000 ------- 2 1.0 5.0 90 90
+ 0.854 2 3 cbr 1000 ------- 2 1.0 5.0 92 92
- 0.854 2 3 cbr 1000 ------- 2 1.0 5.0 92 92
r 0.86 2 3 cbr 1000 ------- 2 1.0 5.0 91 91
+ 0.862 2 3 cbr 1000 ------- 2 1.0 5.0 93 93
- 0.862 2 3 cbr 1000 ------- 2 1.0 5.0 93 93
r 0.868 2 3 cbr 1000 ------- 2 1.0 5.0 92 92
+ 0.87 2 3 cbr 1000 ------- 2 1.0 5.0 94 94
- 0.87 2 3 cbr 1000 ------- 2 1.0 5.0 94 94
r 0.876 2 3 cbr 1000 ------- 2 1.0 5.0 93 93
+ 0.878 2 3 cbr 1000 ------- 2 1.0 5.0 95 95
- 0.878 2 3 cbr 1000 ------- 2 1.0 5.0 95 95
r 0.884 2 3 cbr 1000 ------- 2 1.0 5.0 94 94
+ 0.886 2 3 cbr 1000 ------- 2 1.0 5.0 96 96
- 0.886 2 3 cbr 1000 ------- 2 1.0 5.0 96 96
r 0.892 2 3 cbr 1000 ------- 2 1.0 5.0 95 95
+ 0.894 2 3 cbr 1000 ------- 2 1.0 5.0 97 97
- 0.894 2 3 cbr 1000 ------- 2 1.0 5.0 97 97
r 0.9 2 3 cbr 1000 ------- 2 1.0 5.0 96 96
+ 0.902 2 3 cbr 1000 ------- 2 1.0 5.0 98 98
- 0.902 2 3 cbr 1000 ------- 2 1.0 5.0 98 98
r 0.908 2 3 cbr 1000 ------- 2 1.0 5.0 97 97
+ 0.91 2 3 cbr 1000 ------- 2 1.0 5.0 99 99
- 0.91 2 3 cbr 1000 ------- 2 1.0 5.0 99 99
r 0.916 2 3 cbr 1000 ------- 2 1.0 5.0 98 98
+ 0.918 2 3 cbr 1000 ------- 2 1.0 5.0 100 100
- 0.918 2 3 cbr 1000 ------- 2 1.0 5.0 100 100
r 0.924 2 3 cbr 1000 ------- 2 1.0 5.0 99 99
+ 0.926 2 3 cbr 1000 ------- 2 1.0 5.0 101 101
- 0.926 2 3 cbr 1000 ------- 2 1.0 5.0 101 101
r 0.932 2 3 cbr 1000 ------- 2 1.0 5.0 100 100
+ 0.934 2 3 cbr 1000 ------- 2 1.0 5.0 102 102
- 0.934 2 3 cbr 1000 ------- 2 1.0 5.0 102 102
r 0.94 2 3 cbr 1000 ------- 2 1.0 5.0 101 101
+ 0.942 2 3 cbr 1000 ------- 2 1.0 5.0 103 103
- 0.942 2 3 cbr 1000 ------- 2 1.0 5.0 103 103
r 0.948 2 3 cbr 1000 ------- 2 1.0 5.0 102 102
+ 0.95 2 3 cbr 1000 ------- 2 1.0 5.0 104 104
- 0.95 2 3 cbr 1000 ------- 2 1.0 5.0 104 104
r 0.956 2 3 cbr 1000 ------- 2 1.0 5.0 103 103
+ 0.958 2 3 cbr 1000 ------- 2 1.0 5.0 105 105
- 0.958 2 3 cbr 1000 ------- 2 1.0 5.0 105 105
r 0.964 2 3 cbr 1000 ------- 2 1.0 5.0 104 104
+ 0.966 2 3 cbr 1000 ------- 2 1.0 5.0 106 106
- 0.966 2 3 cbr 1000 ------- 2 1.0 5.0 106 106
r 0.972 2 3 cbr 1000 ------- 2 1.0 5.0 105 105
+ 0.974 2 3 cbr 1000 ------- 2 1.0 5.0 107 107
- 0.974 2 3 cbr 1000 ------- 2 1.0 5.0 107 107
r 0.98 2 3 cbr 1000 ------- 2 1.0 5.0 106 106
+ 0.982 2 3 cbr 1000 ------- 2 1.0 5.0 108 108
- 0.982 2 3 cbr 1000 ------- 2 1.0 5.0 108 108
r 0.988 2 3 cbr 1000 ------- 2 1.0 5.0 107 107
+ 0.99 2 3 cbr 1000 ------- 2 1.0 5.0 109 109
- 0.99 2 3 cbr 1000 ------- 2 1.0 5.0 109 109
r 0.996 2 3 cbr 1000 ------- 2 1.0 5.0 108 108
+ 0.998 2 3 cbr 1000 ------- 2 1.0 5.0 110 110
- 0.998 2 3 cbr 1000 ------- 2 1.0 5.0 110 110
r 1.004 2 3 cbr 1000 ------- 2 1.0 5.0 109 109
+ 1.006 2 3 cbr 1000 ------- 2 1.0 5.0 111 111
- 1.006 2 3 cbr 1000 ------- 2 1.0 5.0 111 111
+ 1.01032 2 3 tcp 40 ------- 1 0.0 4.0 0 113
- 1.01032 2 3 tcp 40 ------- 1 0.0 4.0 0 113
r 1.012 2 3 cbr 1000 ------- 2 1.0 5.0 110 110
+ 1.014 2 3 cbr 1000 ------- 2 1.0 5.0 112 112
- 1.014 2 3 cbr 1000 ------- 2 1.0 5.0 112 112
r 1.02 2 3 cbr 1000 ------- 2 1.0 5.0 111 111
r 1.02048 2 3 tcp 40 ------- 1 0.0 4.0 0 113
+ 1.022 2 3 cbr 1000 ------- 2 1.0 5.0 113 114
- 1.022 2 3 cbr 1000 ------- 2 1.0 5.0 113 114
r 1.028 2 3 cbr 1000 ------- 2 1.0 5.0 112 112
+ 1.03 2 3 cbr 1000 ------- 2 1.0 5.0 114 115
- 1.03 2 3 cbr 1000 ------- 2 1.0 5.0 114 115
r 1.036 2 3 cbr 1000 ------- 2 1.0 5.0 113 114
+ 1.038 2 3 cbr 1000 ------- 2 1.0 5.0 115 116
- 1.038 2 3 cbr 1000 ------- 2 1.0 5.0 115 116
r 1.044 2 3 cbr 1000 ------- 2 1.0 5.0 114 115
+ 1.046 2 3 cbr 1000 ------- 2 1.0 5.0 116 117
- 1.046 2 3 cbr 1000 ------- 2 1.0 5.0 116 117
r 1.052 2 3 cbr 1000 ------- 2 1.0 5.0 115 116
+ 1.054 2 3 cbr 1000 ------- 2 1.0 5.0 117 119
- 1.054 2 3 cbr 1000 ------- 2 1.0 5.0 117 119
r 1.06 2 3 cbr 1000 ------- 2 1.0 5.0 116 117
+ 1.062 2 3 cbr 1000 ------- 2 1.0 5.0 118 120
- 1.062 2 3 cbr 1000 ------- 2 1.0 5.0 118 120
r 1.068 2 3 cbr 1000 ------- 2 1.0 5.0 117 119
+ 1.07 2 3 cbr 1000 ------- 2 1.0 5.0 119 121
- 1.07 2 3 cbr 1000 ------- 2 1.0 5.0 119 121
r 1.076 2 3 cbr 1000 ------- 2 1.0 5.0 118 120
+ 1.078 2 3 cbr 1000 ------- 2 1.0 5.0 120 122
- 1.078 2 3 cbr 1000 ------- 2 1.0 5.0 120 122
+ 1.07992 2 3 tcp 1040 ------- 1 0.0 4.0 1 123
- 1.082 2 3 tcp 1040 ------- 1 0.0 4.0 1 123
r 1.084 2 3 cbr 1000 ------- 2 1.0 5.0 119 121
+ 1.086 2 3 cbr 1000 ------- 2 1.0 5.0 121 125
- 1.08616 2 3 cbr 1000 ------- 2 1.0 5.0 121 125
+ 1.08824 2 3 tcp 1040 ------- 1 0.0 4.0 2 124
- 1.09016 2 3 tcp 1040 ------- 1 0.0 4.0 2 124
r 1.092 2 3 cbr 1000 ------- 2 1.0 5.0 120 122
+ 1.094 2 3 cbr 1000 ------- 2 1.0 5.0 122 126
- 1.09432 2 3 cbr 1000 ------- 2 1.0 5.0 122 126
r 1.09616 2 3 tcp 1040 ------- 1 0.0 4.0 1 123
r 1.10016 2 3 cbr 1000 ------- 2 1.0 5.0 121 125
+ 1.102 2 3 cbr 1000 ------- 2 1.0 5.0 123 127
- 1.102 2 3 cbr 1000 ------- 2 1.0 5.0 123 127
r 1.10432 2 3 tcp 1040 ------- 1 0.0 4.0 2 124
r 1.10832 2 3 cbr 1000 ------- 2 1.0 5.0 122 126
+ 1.11 2 3 cbr 1000 ------- 2 1.0 5.0 124 128
- 1.11 2 3 cbr 1000 ------- 2 1.0 5.0 124 128
r 1.116 2 3 cbr 1000 ------- 2 1.0 5.0 123 127
+ 1.118 2 3 cbr 1000 ------- 2 1.0 5.0 125 129
- 1.118 2 3 cbr 1000 ------- 2 1.0 5.0 125 129
r 1.124 2 3 cbr 1000 ------- 2 1.0 5.0 124 128
+ 1.126 2 3 cbr 1000 ------- 2 1.0 5.0 126 130
- 1.126 2 3 cbr 1000 ------- 2 1.0 5.0 126 130
r 1.132 2 3 cbr 1000 ------- 2 1.0 5.0 125 129
+ 1.134 2 3 cbr 1000 ------- 2 1.0 5.0 127 132
- 1.134 2 3 cbr 1000 ------- 2 1.0 5.0 127 132
r 1.14 2 3 cbr 1000 ------- 2 1.0 5.0 126 130
+ 1.142 2 3 cbr 1000 ------- 2 1.0 5.0 128 134
- 1.142 2 3 cbr 1000 ------- 2 1.0 5.0 128 134
r 1.148 2 3 cbr 1000 ------- 2 1.0 5.0 127 132
+ 1.15 2 3 cbr 1000 ------- 2 1.0 5.0 129 135
- 1.15 2 3 cbr 1000 ------- 2 1.0 5.0 129 135
r 1.156 2 3 cbr 1000 ------- 2 1.0 5.0 128 134
+ 1.158 2 3 cbr 1000 ------- 2 1.0 5.0 130 136
- 1.158 2 3 cbr 1000 ------- 2 1.0 5.0 130 136
+ 1.1636 2 3 tcp 1040 ------- 1 0.0 4.0 3 137
- 1.1636 2 3 tcp 1040 ------- 1 0.0 4.0 3 137
r 1.164 2 3 cbr 1000 ------- 2 1.0 5.0 129 135
+ 1.166 2 3 cbr 1000 ------- 2 1.0 5.0 131 139
- 1.16776 2 3 cbr 1000 ------- 2 1.0 5.0 131 139
+ 1.17192 2 3 tcp 1040 ------- 1 0.0 4.0 4 138
- 1.17192 2 3 tcp 1040 ------- 1 0.0 4.0 4 138
r 1.172 2 3 cbr 1000 ------- 2 1.0 5.0 130 136
+ 1.174 2 3 cbr 1000 ------- 2 1.0 5.0 132 142
- 1.17608 2 3 cbr 1000 ------- 2 1.0 5.0 132 142
r 1.17776 2 3 tcp 1040 ------- 1 0.0 4.0 3 137
+ 1.18024 2 3 tcp 1040 ------- 1 0.0 4.0 5 140
- 1.18024 2 3 tcp 1040 ------- 1 0.0 4.0 5 140
r 1.18176 2 3 cbr 1000 ------- 2 1.0 5.0 131 139
+ 1.182 2 3 cbr 1000 ------- 2 1.0 5.0 133 143
- 1.1844 2 3 cbr 1000 ------- 2 1.0 5.0 133 143
r 1.18608 2 3 tcp 1040 ------- 1 0.0 4.0 4 138
+ 1.18856 2 3 tcp 1040 ------- 1 0.0 4.0 6 141
- 1.18856 2 3 tcp 1040 ------- 1 0.0 4.0 6 141
+ 1.19 2 3 cbr 1000 ------- 2 1.0 5.0 134 144
r 1.19008 2 3 cbr 1000 ------- 2 1.0 5.0 132 142
- 1.19272 2 3 cbr 1000 ------- 2 1.0 5.0 134 144
r 1.1944 2 3 tcp 1040 ------- 1 0.0 4.0 5 140
+ 1.198 2 3 cbr 1000 ------- 2 1.0 5.0 135 145
- 1.198 2 3 cbr 1000 ------- 2 1.0 5.0 135 145
r 1.1984 2 3 cbr 1000 ------- 2 1.0 5.0 133 143
r 1.20272 2 3 tcp 1040 ------- 1 0.0 4.0 6 141
+ 1.206 2 3 cbr 1000 ------- 2 1.0 5.0 136 146
- 1.206 2 3 cbr 1000 ------- 2 1.0 5.0 136 146
r 1.20672 2 3 cbr 1000 ------- 2 1.0 5.0 134 144
r 1.212 2 3 cbr 1000 ------- 2 1.0 5.0 135 145
+ 1.214 2 3 cbr 1000 ------- 2 1.0 5.0 137 147
- 1.214 2 3 cbr 1000 ------- 2 1.0 5.0 137 147
r 1.22 2 3 cbr 1000 ------- 2 1.0 5.0 136 146
+ 1.222 2 3 cbr 1000 ------- 2 1.0 5.0 138 149
- 1.222 2 3 cbr 1000 ------- 2 1.0 5.0 138 149
r 1.228 2 3 cbr 1000 ------- 2 1.0 5.0 137 147
+ 1.23 2 3 cbr 1000 ------- 2 1.0 5.0 139 151
- 1.23 2 3 cbr 1000 ------- 2 1.0 5.0 139 151
r 1.236 2 3 cbr 1000 ------- 2 1.0 5.0 138 149
+ 1.238 2 3 cbr 1000 ------- 2 1.0 5.0 140 153
- 1.238 2 3 cbr 1000 ------- 2 1.0 5.0 140 153
r 1.244 2 3 cbr 1000 ------- 2 1.0 5.0 139 151
+ 1.2452 2 3 tcp 1040 ------- 1 0.0 4.0 7 155
- 1.2452 2 3 tcp 1040 ------- 1 0.0 4.0 7 155
+ 1.246 2 3 cbr 1000 ------- 2 1.0 5.0 141 157
- 1.24936 2 3 cbr 1000 ------- 2 1.0 5.0 141 157
r 1.252 2 3 cbr 1000 ------- 2 1.0 5.0 140 153
+ 1.25352 2 3 tcp 1040 ------- 1 0.0 4.0 8 156
- 1.25352 2 3 tcp 1040 ------- 1 0.0 4.0 8 156
+ 1.254 2 3 cbr 1000 ------- 2 1.0 5.0 142 160
- 1.25768 2 3 cbr 1000 ------- 2 1.0 5.0 142 160
r 1.25936 2 3 tcp 1040 ------- 1 0.0 4.0 7 155
+ 1.26184 2 3 tcp 1040 ------- 1 0.0 4.0 9 158
- 1.26184 2 3 tcp 1040 ------- 1 0.0 4.0 9 158
+ 1.262 2 3 cbr 1000 ------- 2 1.0 5.0 143 163
r 1.26336 2 3 cbr 1000 ------- 2 1.0 5.0 141 157
- 1.266 2 3 cbr 1000 ------- 2 1.0 5.0 143 163
r 1.26768 2 3 tcp 1040 ------- 1 0.0 4.0 8 156
+ 1.27 2 3 cbr 1000 ------- 2 1.0 5.0 144 166
- 1.27 2 3 cbr 1000 ------- 2 1.0 5.0 144 166
+ 1.27016 2 3 tcp 1040 ------- 1 0.0 4.0 10 159
r 1.27168 2 3 cbr 1000 ------- 2 1.0 5.0 142 160
- 1.274 2 3 tcp 1040 ------- 1 0.0 4.0 10 159
r 1.276 2 3 tcp 1040 ------- 1 0.0 4.0 9 158
+ 1.278 2 3 cbr 1000 ------- 2 1.0 5.0 145 167
- 1.27816 2 3 cbr 1000 ------- 2 1.0 5.0 145 167
+ 1.27848 2 3 tcp 1040 ------- 1 0.0 4.0 11 161
r 1.28 2 3 cbr 1000 ------- 2 1.0 5.0 143 163
- 1.28216 2 3 tcp 1040 ------- 1 0.0 4.0 11 161
r 1.284 2 3 cbr 1000 ------- 2 1.0 5.0 144 166
+ 1.286 2 3 cbr 1000 ------- 2 1.0 5.0 146 168
- 1.28632 2 3 cbr 1000 ------- 2 1.0 5.0 146 168
+ 1.2868 2 3 tcp 1040 ------- 1 0.0 4.0 12 162
r 1.28816 2 3 tcp 1040 ------- 1 0.0 4.0 10 159
- 1.29032 2 3 tcp 1040 ------- 1 0.0 4.0 12 162
r 1.29216 2 3 cbr 1000 ------- 2 1.0 5.0 145 167
+ 1.294 2 3 cbr 1000 ------- 2 1.0 5.0 147 169
- 1.29448 2 3 cbr 1000 ------- 2 1.0 5.0 147 169
+ 1.29512 2 3 tcp 1040 ------- 1 0.0 4.0 13 164
r 1.29632 2 3 tcp 1040 ------- 1 0.0 4.0 11 161
- 1.29848 2 3 tcp 1040 ------- 1 0.0 4.0 13 164
r 1.30032 2 3 cbr 1000 ------- 2 1.0 5.0 146 168
+ 1.302 2 3 cbr 1000 ------- 2 1.0 5.0 148 171
- 1.30264 2 3 cbr 1000 ------- 2 1.0 5.0 148 171
+ 1.30344 2 3 tcp 1040 ------- 1 0.0 4.0 14 165
r 1.30448 2 3 tcp 1040 ------- 1 0.0 4.0 12 162
- 1.30664 2 3 tcp 1040 ------- 1 0.0 4.0 14 165
r 1.30848 2 3 cbr 1000 ------- 2 1.0 5.0 147 169
+ 1.31 2 3 cbr 1000 ------- 2 1.0 5.0 149 173
- 1.3108 2 3 cbr 1000 ------- 2 1.0 5.0 149 173
r 1.31264 2 3 tcp 1040 ------- 1 0.0 4.0 13 164
r 1.31664 2 3 cbr 1000 ------- 2 1.0 5.0 148 171
+ 1.318 2 3 cbr 1000 ------- 2 1.0 5.0 150 175
- 1.318 2 3 cbr 1000 ------- 2 1.0 5.0 150 175
r 1.3208 2 3 tcp 1040 ------- 1 0.0 4.0 14 165
r 1.3248 2 3 cbr 1000 ------- 2 1.0 5.0 149 173
+ 1.326 2 3 cbr 1000 ------- 2 1.0 5.0 151 177
- 1.326 2 3 cbr 1000 ------- 2 1.0 5.0 151 177
+ 1.3268 2 3 tcp 1040 ------- 1 0.0 4.0 15 178
- 1.33 2 3 tcp 1040 ------- 1 0.0 4.0 15 178
r 1.332 2 3 cbr 1000 ------- 2 1.0 5.0 150 175
+ 1.334 2 3 cbr 1000 ------- 2 1.0 5.0 152 181
- 1.33416 2 3 cbr 1000 ------- 2 1.0 5.0 152 181
+ 1.33512 2 3 tcp 1040 ------- 1 0.0 4.0 16 179
- 1.33816 2 3 tcp 1040 ------- 1 0.0 4.0 16 179
r 1.34 2 3 cbr 1000 ------- 2 1.0 5.0 151 177
+ 1.342 2 3 cbr 1000 ------- 2 1.0 5.0 153 185
- 1.34232 2 3 cbr 1000 ------- 2 1.0 5.0 153 185
+ 1.34344 2 3 tcp 1040 ------- 1 0.0 4.0 17 182
r 1.34416 2 3 tcp 1040 ------- 1 0.0 4.0 15 178
- 1.34632 2 3 tcp 1040 ------- 1 0.0 4.0 17 182
r 1.34816 2 3 cbr 1000 ------- 2 1.0 5.0 152 181
+ 1.35 2 3 cbr 1000 ------- 2 1.0 5.0 154 189
- 1.35048 2 3 cbr 1000 ------- 2 1.0 5.0 154 189
+ 1.35176 2 3 tcp 1040 ------- 1 0.0 4.0 18 183
r 1.35232 2 3 tcp 1040 ------- 1 0.0 4.0 16 179
- 1.35448 2 3 tcp 1040 ------- 1 0.0 4.0 18 183
r 1.35632 2 3 cbr 1000 ------- 2 1.0 5.0 153 185
+ 1.358 2 3 cbr 1000 ------- 2 1.0 5.0 155 193
- 1.35864 2 3 cbr 1000 ------- 2 1.0 5.0 155 193
+ 1.36008 2 3 tcp 1040 ------- 1 0.0 4.0 19 186
r 1.36048 2 3 tcp 1040 ------- 1 0.0 4.0 17 182
- 1.36264 2 3 tcp 1040 ------- 1 0.0 4.0 19 186
r 1.36448 2 3 cbr 1000 ------- 2 1.0 5.0 154 189
+ 1.366 2 3 cbr 1000 ------- 2 1.0 5.0 156 196
- 1.3668 2 3 cbr 1000 ------- 2 1.0 5.0 156 196
+ 1.3684 2 3 tcp 1040 ------- 1 0.0 4.0 20 187
r 1.36864 2 3 tcp 1040 ------- 1 0.0 4.0 18 183
- 1.3708 2 3 tcp 1040 ------- 1 0.0 4.0 20 187
r 1.37264 2 3 cbr 1000 ------- 2 1.0 5.0 155 193
+ 1.374 2 3 cbr 1000 ------- 2 1.0 5.0 157 199
- 1.37496 2 3 cbr 1000 ------- 2 1.0 5.0 157 199
+ 1.37672 2 3 tcp 1040 ------- 1 0.0 4.0 21 190
r 1.3768 2 3 tcp 1040 ------- 1 0.0 4.0 19 186
- 1.37896 2 3 tcp 1040 ------- 1 0.0 4.0 21 190
r 1.3808 2 3 cbr 1000 ------- 2 1.0 5.0 156 196
+ 1.382 2 3 cbr 1000 ------- 2 1.0 5.0 158 203
- 1.38312 2 3 cbr 1000 ------- 2 1.0 5.0 158 203
r 1.38496 2 3 tcp 1040 ------- 1 0.0 4.0 20 187
+ 1.38504 2 3 tcp 1040 ------- 1 0.0 4.0 22 191
- 1.38712 2 3 tcp 1040 ------- 1 0.0 4.0 22 191
r 1.38896 2 3 cbr 1000 ------- 2 1.0 5.0 157 199
+ 1.39 2 3 cbr 1000 ------- 2 1.0 5.0 159 207
- 1.39128 2 3 cbr 1000 ------- 2 1.0 5.0 159 207
r 1.39312 2 3 tcp 1040 ------- 1 0.0 4.0 21 190
+ 1.39336 2 3 tcp 1040 ------- 1 0.0 4.0 23 194
- 1.39528 2 3 tcp 1040 ------- 1 0.0 4.0 23 194
r 1.39712 2 3 cbr 1000 ------- 2 1.0 5.0 158 203
+ 1.398 2 3 cbr 1000 ------- 2 1.0 5.0 160 209
- 1.39944 2 3 cbr 1000 ------- 2 1.0 5.0 160 209
r 1.40128 2 3 tcp 1040 ------- 1 0.0 4.0 22 191
+ 1.40168 2 3 tcp 1040 ------- 1 0.0 4.0 24 195
- 1.40344 2 3 tcp 1040 ------- 1 0.0 4.0 24 195
r 1.40528 2 3 cbr 1000 ------- 2 1.0 5.0 159 207
+ 1.406 2 3 cbr 1000 ------- 2 1.0 5.0 161 211
- 1.4076 2 3 cbr 1000 ------- 2 1.0 5.0 161 211
r 1.40944 2 3 tcp 1040 ------- 1 0.0 4.0 23 194
+ 1.41 2 3 tcp 1040 ------- 1 0.0 4.0 25 197
- 1.4116 2 3 tcp 1040 ------- 1 0.0 4.0 25 197
r 1.41344 2 3 cbr 1000 ------- 2 1.0 5.0 160 209
+ 1.414 2 3 cbr 1000 ------- 2 1.0 5.0 162 215
- 1.41576 2 3 cbr 1000 ------- 2 1.0 5.0 162 215
r 1.4176 2 3 tcp 1040 ------- 1 0.0 4.0 24 195
+ 1.41832 2 3 tcp 1040 ------- 1 0.0 4.0 26 198
- 1.41976 2 3 tcp 1040 ------- 1 0.0 4.0 26 198
r 1.4216 2 3 cbr 1000 ------- 2 1.0 5.0 161 211
+ 1.422 2 3 cbr 1000 ------- 2 1.0 5.0 163 218
- 1.42392 2 3 cbr 1000 ------- 2 1.0 5.0 163 218
r 1.42576 2 3 tcp 1040 ------- 1 0.0 4.0 25 197
+ 1.42664 2 3 tcp 1040 ------- 1 0.0 4.0 27 200
- 1.42792 2 3 tcp 1040 ------- 1 0.0 4.0 27 200
r 1.42976 2 3 cbr 1000 ------- 2 1.0 5.0 162 215
+ 1.43 2 3 cbr 1000 ------- 2 1.0 5.0 164 222
- 1.43208 2 3 cbr 1000 ------- 2 1.0 5.0 164 222
r 1.43392 2 3 tcp 1040 ------- 1 0.0 4.0 26 198
+ 1.43496 2 3 tcp 1040 ------- 1 0.0 4.0 28 201
- 1.43608 2 3 tcp 1040 ------- 1 0.0 4.0 28 201
r 1.43792 2 3 cbr 1000 ------- 2 1.0 5.0 163 218
+ 1.438 2 3 cbr 1000 ------- 2 1.0 5.0 165 226
- 1.44024 2 3 cbr 1000 ------- 2 1.0 5.0 165 226
r 1.44208 2 3 tcp 1040 ------- 1 0.0 4.0 27 200
+ 1.44328 2 3 tcp 1040 ------- 1 0.0 4.0 29 204
- 1.44424 2 3 tcp 1040 ------- 1 0.0 4.0 29 204
+ 1.446 2 3 cbr 1000 ------- 2 1.0 5.0 166 229
r 1.44608 2 3 cbr 1000 ------- 2 1.0 5.0 164 222
- 1.4484 2 3 cbr 1000 ------- 2 1.0 5.0 166 229
r 1.45024 2 3 tcp 1040 ------- 1 0.0 4.0 28 201
+ 1.4516 2 3 tcp 1040 ------- 1 0.0 4.0 30 205
- 1.4524 2 3 tcp 1040 ------- 1 0.0 4.0 30 205
+ 1.454 2 3 cbr 1000 ------- 2 1.0 5.0 167 232
r 1.45424 2 3 cbr 1000 ------- 2 1.0 5.0 165 226
- 1.45656 2 3 cbr 1000 ------- 2 1.0 5.0 167 232
r 1.4584 2 3 tcp 1040 ------- 1 0.0 4.0 29 204
+ 1.45992 2 3 tcp 1040 ------- 1 0.0 4.0 31 212
- 1.46056 2 3 tcp 1040 ------- 1 0.0 4.0 31 212
+ 1.462 2 3 cbr 1000 ------- 2 1.0 5.0 168 235
r 1.4624 2 3 cbr 1000 ------- 2 1.0 5.0 166 229
- 1.46472 2 3 cbr 1000 ------- 2 1.0 5.0 168 235
r 1.46656 2 3 tcp 1040 ------- 1 0.0 4.0 30 205
+ 1.46824 2 3 tcp 1040 ------- 1 0.0 4.0 32 213
- 1.46872 2 3 tcp 1040 ------- 1 0.0 4.0 32 213
+ 1.47 2 3 cbr 1000 ------- 2 1.0 5.0 169 238
r 1.47056 2 3 cbr 1000 ------- 2 1.0 5.0 167 232
- 1.47288 2 3 cbr 1000 ------- 2 1.0 5.0 169 238
r 1.47472 2 3 tcp 1040 ------- 1 0.0 4.0 31 212
+ 1.47656 2 3 tcp 1040 ------- 1 0.0 4.0 33 216
- 1.47688 2 3 tcp 1040 ------- 1 0.0 4.0 33 216
+ 1.478 2 3 cbr 1000 ------- 2 1.0 5.0 170 241
r 1.47872 2 3 cbr 1000 ------- 2 1.0 5.0 168 235
- 1.48104 2 3 cbr 1000 ------- 2 1.0 5.0 170 241
r 1.48288 2 3 tcp 1040 ------- 1 0.0 4.0 32 213
+ 1.48488 2 3 tcp 1040 ------- 1 0.0 4.0 34 217
- 1.48504 2 3 tcp 1040 ------- 1 0.0 4.0 34 217
+ 1.486 2 3 cbr 1000 ------- 2 1.0 5.0 171 243
r 1.48688 2 3 cbr 1000 ------- 2 1.0 5.0 169 238
- 1.4892 2 3 cbr 1000 ------- 2 1.0 5.0 171 243
r 1.49104 2 3 tcp 1040 ------- 1 0.0 4.0 33 216
+ 1.4932 2 3 tcp 1040 ------- 1 0.0 4.0 35 220
- 1.4932 2 3 tcp 1040 ------- 1 0.0 4.0 35 220
+ 1.494 2 3 cbr 1000 ------- 2 1.0 5.0 172 246
r 1.49504 2 3 cbr 1000 ------- 2 1.0 5.0 170 241
- 1.49736 2 3 cbr 1000 ------- 2 1.0 5.0 172 246
r 1.4992 2 3 tcp 1040 ------- 1 0.0 4.0 34 217
+ 1.50152 2 3 tcp 1040 ------- 1 0.0 4.0 36 221
- 1.50152 2 3 tcp 1040 ------- 1 0.0 4.0 36 221
+ 1.502 2 3 cbr 1000 ------- 2 1.0 5.0 173 249
r 1.5032 2 3 cbr 1000 ------- 2 1.0 5.0 171 243
- 1.50568 2 3 cbr 1000 ------- 2 1.0 5.0 173 249
r 1.50736 2 3 tcp 1040 ------- 1 0.0 4.0 35 220
+ 1.50984 2 3 tcp 1040 ------- 1 0.0 4.0 37 224
- 1.50984 2 3 tcp 1040 ------- 1 0.0 4.0 37 224
+ 1.51 2 3 cbr 1000 ------- 2 1.0 5.0 174 252
r 1.51136 2 3 cbr 1000 ------- 2 1.0 5.0 172 246
- 1.514 2 3 cbr 1000 ------- 2 1.0 5.0 174 252
r 1.51568 2 3 tcp 1040 ------- 1 0.0 4.0 36 221
+ 1.518 2 3 cbr 1000 ------- 2 1.0 5.0 175 255
- 1.518 2 3 cbr 1000 ------- 2 1.0 5.0 175 255
+ 1.51816 2 3 tcp 1040 ------- 1 0.0 4.0 38 225
r 1.51968 2 3 cbr 1000 ------- 2 1.0 5.0 173 249
- 1.522 2 3 tcp 1040 ------- 1 0.0 4.0 38 225
r 1.524 2 3 tcp 1040 ------- 1 0.0 4.0 37 224
+ 1.526 2 3 cbr 1000 ------- 2 1.0 5.0 176 258
- 1.52616 2 3 cbr 1000 ------- 2 1.0 5.0 176 258
+ 1.52648 2 3 tcp 1040 ------- 1 0.0 4.0 39 228
r 1.528 2 3 cbr 1000 ------- 2 1.0 5.0 174 252
- 1.53016 2 3 tcp 1040 ------- 1 0.0 4.0 39 228
r 1.532 2 3 cbr 1000 ------- 2 1.0 5.0 175 255
+ 1.534 2 3 cbr 1000 ------- 2 1.0 5.0 177 261
- 1.53432 2 3 cbr 1000 ------- 2 1.0 5.0 177 261