+ 0.118 2 3 cbr 1000 ------- 2 1.0 5.0 0 0
- 0.118 2 3 cbr 1000 ------- 2 1.0 5.0 0 0
+ 0.126 2 3 cbr 1000 ------- 2 1.0 5.0 1 1
- 0.126 2 3 cbr 1000 ------- 2 1.0 5.0 1 1
r 0.1312 2 3 cbr 1000 ------- 2 1.0 5.0 0 0
+ 0.134 2 3 cbr 1000 ------- 2 1.0 5.0 2 2
- 0.134 2 3 cbr 1000 ------- 2 1.0 5.0 2 2
r 0.1392 2 3 cbr 1000 ------- 2 1.0 5.0 1 1
+ 0.142 2 3 cbr 1000 ------- 2 1.0 5.0 3 3
- 0.142 2 3 cbr 1000 ------- 2 1.0 5.0 3 3
r 0.1472 2 3 cbr 1000 ------- 2 1.0 5.0 2 2
+ 0.15 2 3 cbr 1000 ------- 2 1.0 5.0 4 4
- 0.15 2 3 cbr 1000 ------- 2 1.0 5.0 4 4
r 0.1552 2 3 cbr 1000 ------- 2 1.0 5.0 3 3
+ 0.158 2 3 cbr 1000 ------- 2 1.0 5.0 5 5
- 0.158 2 3 cbr 1000 ------- 2 1.0 5.0 5 5
r 0.1632 2 3 cbr 1000 ------- 2 1.0 5.0 4 4
+ 0.166 2 3 cbr 1000 ------- 2 1.0 5.0 6 6
- 0.166 2 3 cbr 1000 ------- 2 1.0 5.0 6 6
r 0.1712 2 3 cbr 1000 ------- 2 1.0 5.0 5 5
+ 0.174 2 3 cbr 1000 ------- 2 1.0 5.0 7 7
- 0.174 2 3 cbr 1000 ------- 2 1.0 5.0 7 7
r 0.1792 2 3 cbr 1000 ------- 2 1.0 5.0 6 6
+ 0.182 2 3 cbr 1000 ------- 2 1.0 5.0 8 8
- 0.182 2 3 cbr 1000 ------- 2 1.0 5.0 8 8
r 0.1872 2 3 cbr 1000 ------- 2 1.0 5.0 7 7
+ 0.19 2 3 cbr 1000 ------- 2 1.0 5.0 9 9
- 0.19 2 3 cbr 1000 ------- 2 1.0 5.0 9 9
r 0.1952 2 3 cbr 1000 ------- 2 1.0 5.0 8 8
+ 0.198 2 3 cbr 1000 ------- 2 1.0 5.0 10 10
- 0.198 2 3 cbr 1000 ------- 2 1.0 5.0 10 10
r 0.2032 2 3 cbr 1000 ------- 2 1.0 5.0 9 9
+ 0.206 2 3 cbr 1000 ------- 2 1.0 5.0 11 11
- 0.206 2 3 cbr 1000 ------- 2 1.0 5.0 11 11
r 0.2112 2 3 cbr 1000 ------- 2 1.0 5.0 10 10
+ 0.214 2 3 cbr 1000 ------- 2 1.0 5.0 12 12
- 0.214 2 3 cbr 1000 ------- 2 1.0 5.0 12 12
r 0.2192 2 3 cbr 1000 ------- 2 1.0 5.0 11 11
+ 0.222 2 3 cbr 1000 ------- 2 1.0 5.0 13 13
- 0.222 2 3 cbr 1000 ------- 2 1.0 5.0 13 13
r 0.2272 2 3 cbr 1000 ------- 2 1.0 5.0 12 12
+ 0.23 2 3 cbr 1000 ------- 2 1.0 5.0 14 14
- 0.23 2 3 cbr 1000 ------- 2 1.0 5.0 14 14
r 0.2352 2 3 cbr 1000 ------- 2 1.0 5.0 13 13
+ 0.238 2 3 cbr 1000 ------- 2 1.0 5.0 15 15
- 0.238 2 3 cbr 1000 ------- 2 1.0 5.0 15 15
r 0.2432 2 3 cbr 1000 ------- 2 1.0 5.0 14 14
+ 0.246 2 3 cbr 1000 ------- 2 1.0 5.0 16 16
- 0.246 2 3 cbr 1000 ------- 2 1.0 5.0 16 16
r 0.2512 2 3 cbr 1000 ------- 2 1.0 5.0 15 15
+ 0.254 2 3 cbr 1000 ------- 2 1.0 5.0 17 17
- 0.254 2 3 cbr 1000 ------- 2 1.0 5.0 17 17
r 0.2592 2 3 cbr 1000 ------- 2 1.0 5.0 16 16
+ 0.262 2 3 cbr 1000 ------- 2 1.0 5.0 18 18
- 0.262 2 3 cbr 1000 ------- 2 1.0 5.0 18 18
r 0.2672 2 3 cbr 1000 ------- 2 1.0 5.0 17 17
+ 0.27 2 3 cbr 1000 ------- 2 1.0 5.0 19 19
- 0.27 2 3 cbr 1000 ------- 2 1.0 5.0 19 19
r 0.2752 2 3 cbr 1000 ------- 2 1.0 5.0 18 18
+ 0.278 2 3 cbr 1000 ------- 2 1.0 5.0 20 20
- 0.278 2 3 cbr 1000 ------- 2 1.0 5.0 20 20
r 0.2832 2 3 cbr 1000 ------- 2 1.0 5.0 19 19
+ 0.286 2 3 cbr 1000 ------- 2 1.0 5.0 21 21
- 0.286 2 3 cbr 1000 ------- 2 1.0 5.0 21 21
r 0.2912 2 3 cbr 1000 ------- 2 1.0 5.0 20 20
+ 0.294 2 3 cbr 1000 ------- 2 1.0 5.0 22 22
- 0.294 2 3 cbr 1000 ------- 2 1.0 5.0 22 22
r 0.2992 2 3 cbr 1000 ------- 2 1.0 5.0 21 21
+ 0.302 2 3 cbr 1000 ------- 2 1.0 5.0 23 23
- 0.302 2 3 cbr 1000 ------- 2 1.0 5.0 23 23
r 0.3072 2 3 cbr 1000 ------- 2 1.0 5.0 22 22
+ 0.31 2 3 cbr 1000 ------- 2 1.0 5.0 24 24
- 0.31 2 3 cbr 1000 ------- 2 1.0 5.0 24 24
r 0.3152 2 3 cbr 1000 ------- 2 1.0 5.0 23 23
+ 0.318 2 3 cbr 1000 ------- 2 1.0 5.0 25 25
- 0.318 2 3 cbr 1000 ------- 2 1.0 5.0 25 25
r 0.3232 2 3 cbr 1000 ------- 2 1.0 5.0 24 24
+ 0.326 2 3 cbr 1000 ------- 2 1.0 5.0 26 26
- 0.326 2 3 cbr 1000 ------- 2 1.0 5.0 26 26
r 0.3312 2 3 cbr 1000 ------- 2 1.0 5.0 25 25
+ 0.334 2 3 cbr 1000 ------- 2 1.0 5.0 27 27
- 0.334 2 3 cbr 1000 ------- 2 1.0 5.0 27 27
r 0.3392 2 3 cbr 1000 ------- 2 1.0 5.0 26 26
+ 0.342 2 3 cbr 1000 ------- 2 1.0 5.0 28 28
- 0.342 2 3 cbr 1000 ------- 2 1.0 5.0 28 28
r 0.3472 2 3 cbr 1000 ------- 2 1.0 5.0 27 27
+ 0.35 2 3 cbr 1000 ------- 2 1.0 5.0 29 29
- 0.35 2 3 cbr 1000 ------- 2 1.0 5.0 29 29
r 0.3552 2 3 cbr 1000 ------- 2 1.0 5.0 28 28
+ 0.358 2 3 cbr 1000 ------- 2 1.0 5.0 30 30
- 0.358 2 3 cbr 1000 ------- 2 1.0 5.0 30 30
r 0.3632 2 3 cbr 1000 ------- 2 1.0 5.0 29 29
+ 0.366 2 3 cbr 1000 ------- 2 1.0 5.0 31 31
- 0.366 2 3 cbr 1000 ------- 2 1.0 5.0 31 31
r 0.3712 2 3 cbr 1000 ------- 2 1.0 5.0 30 30
+ 0.374 2 3 cbr 1000 ------- 2 1.0 5.0 32 32
- 0.374 2 3 cbr 1000 ------- 2 1.0 5.0 32 32
r 0.3792 2 3 cbr 1000 ------- 2 1.0 5.0 31 31
+ 0.382 2 3 cbr 1000 ------- 2 1.0 5.0 33 33
- 0.382 2 3 cbr 1000 ------- 2 1.0 5.0 33 33
r 0.3872 2 3 cbr 1000 ------- 2 1.0 5.0 32 32
+ 0.39 2 3 cbr 1000 ------- 2 1.0 5.0 34 34
- 0.39 2 3 cbr 1000 ------- 2 1.0 5.0 34 34
r 0.3952 2 3 cbr 1000 ------- 2 1.0 5.0 33 33
+ 0.398 2 3 cbr 1000 ------- 2 1.0 5.0 35 35
- 0.398 2 3 cbr 1000 ------- 2 1.0 5.0 35 35
r 0.4032 2 3 cbr 1000 ------- 2 1.0 5.0 34 34
+ 0.406 2 3 cbr 1000 ------- 2 1.0 5.0 36 36
- 0.406 2 3 cbr 1000 ------- 2 1.0 5.0 36 36
r 0.4112 2 3 cbr 1000 ------- 2 1.0 5.0 35 35
+ 0.414 2 3 cbr 1000 ------- 2 1.0 5.0 37 37
- 0.414 2 3 cbr 1000 ------- 2 1.0 5.0 37 37
r 0.4192 2 3 cbr 1000 ------- 2 1.0 5.0 36 36
+ 0.422 2 3 cbr 1000 ------- 2 1.0 5.0 38 38
- 0.422 2 3 cbr 1000 ------- 2 1.0 5.0 38 38
r 0.4272 2 3 cbr 1000 ------- 2 1.0 5.0 37 37
+ 0.43 2 3 cbr 1000 ------- 2 1.0 5.0 39 39
- 0.43 2 3 cbr 1000 ------- 2 1.0 5.0 39 39
r 0.4352 2 3 cbr 1000 ------- 2 1.0 5.0 38 38
+ 0.438 2 3 cbr 1000 ------- 2 1.0 5.0 40 40
- 0.438 2 3 cbr 1000 ------- 2 1.0 5.0 40 40
r 0.4432 2 3 cbr 1000 ------- 2 1.0 5.0 39 39
+ 0.446 2 3 cbr 1000 ------- 2 1.0 5.0 41 41
- 0.446 2 3 cbr 1000 ------- 2 1.0 5.0 41 41
r 0.4512 2 3 cbr 1000 ------- 2 1.0 5.0 40 40
+ 0.454 2 3 cbr 1000 ------- 2 1.0 5.0 42 42
- 0.454 2 3 cbr 1000 ------- 2 1.0 5.0 42 42
r 0.4592 2 3 cbr 1000 ------- 2 1.0 5.0 41 41
+ 0.462 2 3 cbr 1000 ------- 2 1.0 5.0 43 43
- 0.462 2 3 cbr 1000 ------- 2 1.0 5.0 43 43
r 0.4672 2 3 cbr 1000 ------- 2 1.0 5.0 42 42
+ 0.47 2 3 cbr 1000 ------- 2 1.0 5.0 44 44
- 0.47 2 3 cbr 1000 ------- 2 1.0 5.0 44 44
r 0.4752 2 3 cbr 1000 ------- 2 1.0 5.0 43 43
+ 0.478 2 3 cbr 1000 ------- 2 1.0 5.0 45 45
- 0.478 2 3 cbr 1000 ------- 2 1.0 5.0 45 45
r 0.4832 2 3 cbr 1000 ------- 2 1.0 5.0 44 44
+ 0.486 2 3 cbr 1000 ------- 2 1.0 5.0 46 46
- 0.486 2 3 cbr 1000 ------- 2 1.0 5.0 46 46
r 0.4912 2 3 cbr 1000 ------- 2 1.0 5.0 45 45
+ 0.494 2 3 cbr 1000 ------- 2 1.0 5.0 47 47
- 0.494 2 3 cbr 1000 ------- 2 1.0 5.0 47 47
r 0.4992 2 3 cbr 1000 ------- 2 1.0 5.0 46 46
+ 0.502 2 3 cbr 1000 ------- 2 1.0 5.0 48 48
- 0.502 2 3 cbr 1000 ------- 2 1.0 5.0 48 48
r 0.5072 2 3 cbr 1000 ------- 2 1.0 5.0 47 47
+ 0.51 2 3 cbr 1000 ------- 2 1.0 5.0 49 49
- 0.51 2 3 cbr 1000 ------- 2 1.0 5.0 49 49
r 0.5152 2 3 cbr 1000 ------- 2 1.0 5.0 48 48
+ 0.518 2 3 cbr 1000 ------- 2 1.0 5.0 50 50
- 0.518 2 3 cbr 1000 ------- 2 1.0 5.0 50 50
r 0.5232 2 3 cbr 1000 ------- 2 1.0 5.0 49 49
+ 0.526 2 3 cbr 1000 ------- 2 1.0 5.0 51 51
- 0.526 2 3 cbr 1000 ------- 2 1.0 5.0 51 51
r 0.5312 2 3 cbr 1000 ------- 2 1.0 5.0 50 50
+ 0.534 2 3 cbr 1000 ------- 2 1.0 5.0 52 52
- 0.534 2 3 cbr 1000 ------- 2 1.0 5.0 52 52
r 0.5392 2 3 cbr 1000 ------- 2 1.0 5.0 51 51
+ 0.542 2 3 cbr 1000 ------- 2 1.0 5.0 53 53
- 0.542 2 3 cbr 1000 ------- 2 1.0 5.0 53 53
r 0.5472 2 3 cbr 1000 ------- 2 1.0 5.0 52 52
+ 0.55 2 3 cbr 1000 ------- 2 1.0 5.0 54 54
- 0.55 2 3 cbr 1000 ------- 2 1.0 5.0 54 54
r 0.5552 2 3 cbr 1000 ------- 2 1.0 5.0 53 53
+ 0.558 2 3 cbr 1000 ------- 2 1.0 5.0 55 55
- 0.558 2 3 cbr 1000 ------- 2 1.0 5.0 55 55
r 0.5632 2 3 cbr 1000 ------- 2 1.0 5.0 54 54
+ 0.566 2 3 cbr 1000 ------- 2 1.0 5.0 56 56
- 0.566 2 3 cbr 1000 ------- 2 1.0 5.0 56 56
r 0.5712 2 3 cbr 1000 ------- 2 1.0 5.0 55 55
+ 0.574 2 3 cbr 1000 ------- 2 1.0 5.0 57 57
- 0.574 2 3 cbr 1000 ------- 2 1.0 5.0 57 57
r 0.5792 2 3 cbr 1000 ------- 2 1.0 5.0 56 56
+ 0.582 2 3 cbr 1000 ------- 2 1.0 5.0 58 58
- 0.582 2 3 cbr 1000 ------- 2 1.0 5.0 58 58
r 0.5872 2 3 cbr 1000 ------- 2 1.0 5.0 57 57
+ 0.59 2 3 cbr 1000 ------- 2 1.0 5.0 59 59
- 0.59 2 3 cbr 1000 ------- 2 1.0 5.0 59 59
r 0.5952 2 3 cbr 1000 ------- 2 1.0 5.0 58 58
+ 0.598 2 3 cbr 1000 ------- 2 1.0 5.0 60 60
- 0.598 2 3 cbr 1000 ------- 2 1.0 5.0 60 60
r 0.6032 2 3 cbr 1000 ------- 2 1.0 5.0 59 59
+ 0.606 2 3 cbr 1000 ------- 2 1.0 5.0 61 61
- 0.606 2 3 cbr 1000 ------- 2 1.0 5.0 61 61
r 0.6112 2 3 cbr 1000 ------- 2 1.0 5.0 60 60
+ 0.614 2 3 cbr 1000 ------- 2 1.0 5.0 62 62
- 0.614 2 3 cbr 1000 ------- 2 1.0 5.0 62 62
r 0.6192 2 3 cbr 1000 ------- 2 1.0 5.0 61 61
+ 0.622 2 3 cbr 1000 ------- 2 1.0 5.0 63 63
- 0.622 2 3 cbr 1000 ------- 2 1.0 5.0 63 63
r 0.6272 2 3 cbr 1000 ------- 2 1.0 5.0 62 62
+ 0.63 2 3 cbr 1000 ------- 2 1.0 5.0 64 64
- 0.63 2 3 cbr 1000 ------- 2 1.0 5.0 64 64
r 0.6352 2 3 cbr 1000 ------- 2 1.0 5.0 63 63
+ 0.638 2 3 cbr 1000 ------- 2 1.0 5.0 65 65
- 0.638 2 3 cbr 1000 ------- 2 1.0 5.0 65 65
r 0.6432 2 3 cbr 1000 ------- 2 1.0 5.0 64 64
+ 0.646 2 3 cbr 1000 ------- 2 1.0 5.0 66 66
- 0.646 2 3 cbr 1000 ------- 2 1.0 5.0 66 66
r 0.6512 2 3 cbr 1000 ------- 2 1.0 5.0 65 65
+ 0.654 2 3 cbr 1000 ------- 2 1.0 5.0 67 67
- 0.654 2 3 cbr 1000 ------- 2 1.0 5.0 67 67
r 0.6592 2 3 cbr 1000 ------- 2 1.0 5.0 66 66
+ 0.662 2 3 cbr 1000 ------- 2 1.0 5.0 68 68
- 0.662 2 3 cbr 1000 ------- 2 1.0 5.0 68 68
r 0.6672 2 3 cbr 1000 ------- 2 1.0 5.0 67 67
+ 0.67 2 3 cbr 1000 ------- 2 1.0 5.0 69 69
- 0.67 2 3 cbr 1000 ------- 2 1.0 5.0 69 69
r 0.6752 2 3 cbr 1000 ------- 2 1.0 5.0 68 68
+ 0.678 2 3 cbr 1000 ------- 2 1.0 5.0 70 70
- 0.678 2 3 cbr 1000 ------- 2 1.0 5.0 70 70
r 0.6832 2 3 cbr 1000 ------- 2 1.0 5.0 69 69
+ 0.686 2 3 cbr 1000 ------- 2 1.0 5.0 71 71
- 0.686 2 3 cbr 1000 ------- 2 1.0 5.0 71 71
r 0.6912 2 3 cbr 1000 ------- 2 1.0 5.0 70 70
+ 0.694 2 3 cbr 1000 ------- 2 1.0 5.0 72 72
- 0.694 2 3 cbr 1000 ------- 2 1.0 5.0 72 72
r 0.6992 2 3 cbr 1000 ------- 2 1.0 5.0 71 71
+ 0.702 2 3 cbr 1000 ------- 2 1.0 5.0 73 73
- 0.702 2 3 cbr 1000 ------- 2 1.0 5.0 73 73
r 0.7072 2 3 cbr 1000 ------- 2 1.0 5.0 72 72
+ 0.71 2 3 cbr 1000 ------- 2 1.0 5.0 74 74
- 0.71 2 3 cbr 1000 ------- 2 1.0 5.0 74 74
r 0.7152 2 3 cbr 1000 ------- 2 1.0 5.0 73 73
+ 0.718 2 3 cbr 1000 ------- 2 1.0 5.0 75 75
- 0.718 2 3 cbr 1000 ------- 2 1.0 5.0 75 75
r 0.7232 2 3 cbr 1000 ------- 2 1.0 5.0 74 74
+ 0.726 2 3 cbr 1000 ------- 2 1.0 5.0 76 76
- 0.726 2 3 cbr 1000 ------- 2 1.0 5.0 76 76
r 0.7312 2 3 cbr 1000 ------- 2 1.0 5.0 75 75
+ 0.734 2 3 cbr 1000 ------- 2 1.0 5.0 77 77
- 0.734 2 3 cbr 1000 ------- 2 1.0 5.0 77 77
r 0.7392 2 3 cbr 1000 ------- 2 1.0 5.0 76 76
+ 0.742 2 3 cbr 1000 ------- 2 1.0 5.0 78 78
- 0.742 2 3 cbr 1000 ------- 2 1.0 5.0 78 78
r 0.7472 2 3 cbr 1000 ------- 2 1.0 5.0 77 77
+ 0.75 2 3 cbr 1000 ------- 2 1.0 5.0 79 79
- 0.75 2 3 cbr 1000 ------- 2 1.0 5.0 79 79
r 0.7552 2 3 cbr 1000 ------- 2 1.0 5.0 78 78
+ 0.758 2 3 cbr 1000 ------- 2 1.0 5.0 80 80
- 0.758 2 3 cbr 1000 ------- 2 1.0 5.0 80 80
r 0.7632 2 3 cbr 1000 ------- 2 1.0 5.0 79 79
+ 0.766 2 3 cbr 1000 ------- 2 1.0 5.0 81 81
- 0.766 2 3 cbr 1000 ------- 2 1.0 5.0 81 81
r 0.7712 2 3 cbr 1000 ------- 2 1.0 5.0 80 80
+ 0.774 2 3 cbr 1000 ------- 2 1.0 5.0 82 82
- 0.774 2 3 cbr 1000 ------- 2 1.0 5.0 82 82
r 0.7792 2 3 cbr 1000 ------- 2 1.0 5.0 81 81
+ 0.782 2 3 cbr 1000 ------- 2 1.0 5.0 83 83
- 0.782 2 3 cbr 1000 ------- 2 1.0 5.0 83 83
r 0.7872 2 3 cbr 1000 ------- 2 1.0 5.0 82 82
+ 0.79 2 3 cbr 1000 ------- 2 1.0 5.0 84 84
- 0.79 2 3 cbr 1000 ------- 2 1.0 5.0 84 84
r 0.7952 2 3 cbr 1000 ------- 2 1.0 5.0 83 83
+ 0.798 2 3 cbr 1000 ------- 2 1.0 5.0 85 85
- 0.798 2 3 cbr 1000 ------- 2 1.0 5.0 85 85
r 0.8032 2 3 cbr 1000 ------- 2 1.0 5.0 84 84
+ 0.806 2 3 cbr 1000 ------- 2 1.0 5.0 86 86
- 0.806 2 3 cbr 1000 ------- 2 1.0 5.0 86 86
r 0.8112 2 3 cbr 1000 ------- 2 1.0 5.0 85 85
+ 0.814 2 3 cbr 1000 ------- 2 1.0 5.0 87 87
- 0.814 2 3 cbr 1000 ------- 2 1.0 5.0 87 87
r 0.8192 2 3 cbr 1000 ------- 2 1.0 5.0 86 86
+ 0.822 2 3 cbr 1000 ------- 2 1.0 5.0 88 88
- 0.822 2 3 cbr 1000 ------- 2 1.0 5.0 88 88
r 0.8272 2 3 cbr 1000 ------- 2 1.0 5.0 87 87
+ 0.83 2 3 cbr 1000 ------- 2 1.0 5.0 89 89
- 0.83 2 3 cbr 1000 ------- 2 1.0 5.0 89 89
r 0.8352 2 3 cbr 1000 ------- 2 1.0 5.0 88 88
+ 0.838 2 3 cbr 1000 ------- 2 1.0 5.0 90 90
- 0.838 2 3 cbr 1000 ------- 2 1.0 5.0 90 90
r 0.8432 2 3 cbr 1000 ------- 2 1.0 5.0 89 89
+ 0.846 2 3 cbr 1000 ------- 2 1.0 5.0 91 91
- 0.846 2 3 cbr 1000 ------- 2 1.0 5.0 91 91
r 0.8512 2 3 cbr 1000 ------- 2 1.0 5.0 90 90
+ 0.854 2 3 cbr 1000 ------- 2 1.0 5.0 92 92
- 0.854 2 3 cbr 1000 ------- 2 1.0 5.0 92 92
r 0.8592 2 3 cbr 1000 ------- 2 1.0 5.0 91 91
+ 0.862 2 3 cbr 1000 ------- 2 1.0 5.0 93 93
- 0.862 2 3 cbr 1000 ------- 2 1.0 5.0 93 93
r 0.8672 2 3 cbr 1000 ------- 2 1.0 5.0 92 92
+ 0.87 2 3 cbr 1000 ------- 2 1.0 5.0 94 94
- 0.87 2 3 cbr 1000 ------- 2 1.0 5.0 94 94
r 0.8752 2 3 cbr 1000 ------- 2 1.0 5.0 93 93
+ 0.878 2 3 cbr 1000 ------- 2 1.0 5.0 95 95
- 0.878 2 3 cbr 1000 ------- 2 1.0 5.0 95 95
r 0.8832 2 3 cbr 1000 ------- 2 1.0 5.0 94 94
+ 0.886 2 3 cbr 1000 ------- 2 1.0 5.0 96 96
- 0.886 2 3 cbr 1000 ------- 2 1.0 5.0 96 96
r 0.8912 2 3 cbr 1000 ------- 2 1.0 5.0 95 95
+ 0.894 2 3 cbr 1000 ------- 2 1.0 5.0 97 97
- 0.894 2 3 cbr 1000 ------- 2 1.0 5.0 97 97
r 0.8992 2 3 cbr 1000 ------- 2 1.0 5.0 96 96
+ 0.902 2 3 cbr 1000 ------- 2 1.0 5.0 98 98
- 0.902 2 3 cbr 1000 ------- 2 1.0 5.0 98 98
r 0.9072 2 3 cbr 1000 ------- 2 1.0 5.0 97 97
+ 0.91 2 3 cbr 1000 ------- 2 1.0 5.0 99 99
- 0.91 2 3 cbr 1000 ------- 2 1.0 5.0 99 99
r 0.9152 2 3 cbr 1000 ------- 2 1.0 5.0 98 98
+ 0.918 2 3 cbr 1000 ------- 2 1.0 5.0 100 100
- 0.918 2 3 cbr 1000 ------- 2 1.0 5.0 100 100
r 0.9232 2 3 cbr 1000 ------- 2 1.0 5.0 99 99
+ 0.926 2 3 cbr 1000 ------- 2 1.0 5.0 101 101
- 0.926 2 3 cbr 1000 ------- 2 1.0 5.0 101 101
r 0.9312 2 3 cbr 1000 ------- 2 1.0 5.0 100 100
+ 0.934 2 3 cbr 1000 ------- 2 1.0 5.0 102 102
- 0.934 2 3 cbr 1000 ------- 2 1.0 5.0 102 102
r 0.9392 2 3 cbr 1000 ------- 2 1.0 5.0 101 101
+ 0.942 2 3 cbr 1000 ------- 2 1.0 5.0 103 103
- 0.942 2 3 cbr 1000 ------- 2 1.0 5.0 103 103
r 0.9472 2 3 cbr 1000 ------- 2 1.0 5.0 102 102
+ 0.95 2 3 cbr 1000 ------- 2 1.0 5.0 104 104
- 0.95 2 3 cbr 1000 ------- 2 1.0 5.0 104 104
r 0.9552 2 3 cbr 1000 ------- 2 1.0 5.0 103 103
+ 0.958 2 3 cbr 1000 ------- 2 1.0 5.0 105 105
- 0.958 2 3 cbr 1000 ------- 2 1.0 5.0 105 105
r 0.9632 2 3 cbr 1000 ------- 2 1.0 5.0 104 104
+ 0.966 2 3 cbr 1000 ------- 2 1.0 5.0 106 106
- 0.966 2 3 cbr 1000 ------- 2 1.0 5.0 106 106
r 0.9712 2 3 cbr 1000 ------- 2 1.0 5.0 105 105
+ 0.974 2 3 cbr 1000 ------- 2 1.0 5.0 107 107
- 0.974 2 3 cbr 1000 ------- 2 1.0 5.0 107 107
r 0.9792 2 3 cbr 1000 ------- 2 1.0 5.0 106 106
+ 0.982 2 3 cbr 1000 ------- 2 1.0 5.0 108 108
- 0.982 2 3 cbr 1000 ------- 2 1.0 5.0 108 108
r 0.9872 2 3 cbr 1000 ------- 2 1.0 5.0 107 107
+ 0.99 2 3 cbr 1000 ------- 2 1.0 5.0 109 109
- 0.99 2 3 cbr 1000 ------- 2 1.0 5.0 109 109
r 0.9952 2 3 cbr 1000 ------- 2 1.0 5.0 108 108
+ 0.998 2 3 cbr 1000 ------- 2 1.0 5.0 110 110
- 0.998 2 3 cbr 1000 ------- 2 1.0 5.0 110 110
r 1.0032 2 3 cbr 1000 ------- 2 1.0 5.0 109 109
+ 1.006 2 3 cbr 1000 ------- 2 1.0 5.0 111 111
- 1.006 2 3 cbr 1000 ------- 2 1.0 5.0 111 111
+ 1.01032 2 3 tcp 40 ------- 1 0.0 4.0 0 113
- 1.01032 2 3 tcp 40 ------- 1 0.0 4.0 0 113
r 1.0112 2 3 cbr 1000 ------- 2 1.0 5.0 110 110
+ 1.014 2 3 cbr 1000 ------- 2 1.0 5.0 112 112
- 1.014 2 3 cbr 1000 ------- 2 1.0 5.0 112 112
r 1.0192 2 3 cbr 1000 ------- 2 1.0 5.0 111 111
r 1.020448 2 3 tcp 40 ------- 1 0.0 4.0 0 113
+ 1.022 2 3 cbr 1000 ------- 2 1.0 5.0 113 114
- 1.022 2 3 cbr 1000 ------- 2 1.0 5.0 113 114
r 1.0272 2 3 cbr 1000 ------- 2 1.0 5.0 112 112
+ 1.03 2 3 cbr 1000 ------- 2 1.0 5.0 114 115
- 1.03 2 3 cbr 1000 ------- 2 1.0 5.0 114 115
r 1.0352 2 3 cbr 1000 ------- 2 1.0 5.0 113 114
+ 1.038 2 3 cbr 1000 ------- 2 1.0 5.0 115 116
- 1.038 2 3 cbr 1000 ------- 2 1.0 5.0 115 116
r 1.0432 2 3 cbr 1000 ------- 2 1.0 5.0 114 115
+ 1.046 2 3 cbr 1000 ------- 2 1.0 5.0 116 117
- 1.046 2 3 cbr 1000 ------- 2 1.0 5.0 116 117
r 1.0512 2 3 cbr 1000 ------- 2 1.0 5.0 115 116
+ 1.054 2 3 cbr 1000 ------- 2 1.0 5.0 117 119
- 1.054 2 3 cbr 1000 ------- 2 1.0 5.0 117 119
r 1.0592 2 3 cbr 1000 ------- 2 1.0 5.0 116 117
+ 1.062 2 3 cbr 1000 ------- 2 1.0 5.0 118 120
- 1.062 2 3 cbr 1000 ------- 2 1.0 5.0 118 120
r 1.0672 2 3 cbr 1000 ------- 2 1.0 5.0 117 119
+ 1.07 2 3 cbr 1000 ------- 2 1.0 5.0 119 121
- 1.07 2 3 cbr 1000 ------- 2 1.0 5.0 119 121
r 1.0752 2 3 cbr 1000 ------- 2 1.0 5.0 118 120
+ 1.078 2 3 cbr 1000 ------- 2 1.0 5.0 120 122
- 1.078 2 3 cbr 1000 ------- 2 1.0 5.0 120 122
+ 1.079856 2 3 tcp 1040 ------- 1 0.0 4.0 1 123
- 1.0812 2 3 tcp 1040 ------- 1 0.0 4.0 1 123
r 1.0832 2 3 cbr 1000 ------- 2 1.0 5.0 119 121
+ 1.086 2 3 cbr 1000 ------- 2 1.0 5.0 121 125
- 1.086 2 3 cbr 1000 ------- 2 1.0 5.0 121 125
+ 1.088176 2 3 tcp 1040 ------- 1 0.0 4.0 2 124
- 1.0892 2 3 tcp 1040 ------- 1 0.0 4.0 2 124
r 1.0912 2 3 cbr 1000 ------- 2 1.0 5.0 120 122
+ 1.094 2 3 cbr 1000 ------- 2 1.0 5.0 122 126
- 1.094 2 3 cbr 1000 ------- 2 1.0 5.0 122 126
r 1.094528 2 3 tcp 1040 ------- 1 0.0 4.0 1 123
r 1.0992 2 3 cbr 1000 ------- 2 1.0 5.0 121 125
+ 1.102 2 3 cbr 1000 ------- 2 1.0 5.0 123 127
- 1.102 2 3 cbr 1000 ------- 2 1.0 5.0 123 127
r 1.102528 2 3 tcp 1040 ------- 1 0.0 4.0 2 124
r 1.1072 2 3 cbr 1000 ------- 2 1.0 5.0 122 126
+ 1.11 2 3 cbr 1000 ------- 2 1.0 5.0 124 128
- 1.11 2 3 cbr 1000 ------- 2 1.0 5.0 124 128
r 1.1152 2 3 cbr 1000 ------- 2 1.0 5.0 123 127
+ 1.118 2 3 cbr 1000 ------- 2 1.0 5.0 125 129
- 1.118 2 3 cbr 1000 ------- 2 1.0 5.0 125 129
r 1.1232 2 3 cbr 1000 ------- 2 1.0 5.0 124 128
+ 1.126 2 3 cbr 1000 ------- 2 1.0 5.0 126 130
- 1.126 2 3 cbr 1000 ------- 2 1.0 5.0 126 130
r 1.1312 2 3 cbr 1000 ------- 2 1.0 5.0 125 129
+ 1.134 2 3 cbr 1000 ------- 2 1.0 5.0 127 132
- 1.134 2 3 cbr 1000 ------- 2 1.0 5.0 127 132
r 1.1392 2 3 cbr 1000 ------- 2 1.0 5.0 126 130
+ 1.142 2 3 cbr 1000 ------- 2 1.0 5.0 128 134
- 1.142 2 3 cbr 1000 ------- 2 1.0 5.0 128 134
r 1.1472 2 3 cbr 1000 ------- 2 1.0 5.0 127 132
+ 1.15 2 3 cbr 1000 ------- 2 1.0 5.0 129 135
- 1.15 2 3 cbr 1000 ------- 2 1.0 5.0 129 135
r 1.1552 2 3 cbr 1000 ------- 2 1.0 5.0 128 134
+ 1.158 2 3 cbr 1000 ------- 2 1.0 5.0 130 136
- 1.158 2 3 cbr 1000 ------- 2 1.0 5.0 130 136
+ 1.161936 2 3 tcp 1040 ------- 1 0.0 4.0 3 137
- 1.161936 2 3 tcp 1040 ------- 1 0.0 4.0 3 137
r 1.1632 2 3 cbr 1000 ------- 2 1.0 5.0 129 135
+ 1.166 2 3 cbr 1000 ------- 2 1.0 5.0 131 139
- 1.166 2 3 cbr 1000 ------- 2 1.0 5.0 131 139
+ 1.170256 2 3 tcp 1040 ------- 1 0.0 4.0 4 138
- 1.170256 2 3 tcp 1040 ------- 1 0.0 4.0 4 138
r 1.1712 2 3 cbr 1000 ------- 2 1.0 5.0 130 136
+ 1.174 2 3 cbr 1000 ------- 2 1.0 5.0 132 142
- 1.174 2 3 cbr 1000 ------- 2 1.0 5.0 132 142
r 1.175264 2 3 tcp 1040 ------- 1 0.0 4.0 3 137
+ 1.178576 2 3 tcp 1040 ------- 1 0.0 4.0 5 140
- 1.178576 2 3 tcp 1040 ------- 1 0.0 4.0 5 140
r 1.1792 2 3 cbr 1000 ------- 2 1.0 5.0 131 139
+ 1.182 2 3 cbr 1000 ------- 2 1.0 5.0 133 143
- 1.182 2 3 cbr 1000 ------- 2 1.0 5.0 133 143
r 1.183584 2 3 tcp 1040 ------- 1 0.0 4.0 4 138
+ 1.186896 2 3 tcp 1040 ------- 1 0.0 4.0 6 141
- 1.186896 2 3 tcp 1040 ------- 1 0.0 4.0 6 141
r 1.1872 2 3 cbr 1000 ------- 2 1.0 5.0 132 142
+ 1.19 2 3 cbr 1000 ------- 2 1.0 5.0 134 144
- 1.190224 2 3 cbr 1000 ------- 2 1.0 5.0 134 144
r 1.191904 2 3 tcp 1040 ------- 1 0.0 4.0 5 140
r 1.1952 2 3 cbr 1000 ------- 2 1.0 5.0 133 143
+ 1.198 2 3 cbr 1000 ------- 2 1.0 5.0 135 145
- 1.198 2 3 cbr 1000 ------- 2 1.0 5.0 135 145
r 1.200224 2 3 tcp 1040 ------- 1 0.0 4.0 6 141
r 1.203424 2 3 cbr 1000 ------- 2 1.0 5.0 134 144
+ 1.206 2 3 cbr 1000 ------- 2 1.0 5.0 136 146
- 1.206 2 3 cbr 1000 ------- 2 1.0 5.0 136 146
r 1.2112 2 3 cbr 1000 ------- 2 1.0 5.0 135 145
+ 1.214 2 3 cbr 1000 ------- 2 1.0 5.0 137 148
- 1.214 2 3 cbr 1000 ------- 2 1.0 5.0 137 148
r 1.2192 2 3 cbr 1000 ------- 2 1.0 5.0 136 146
+ 1.222 2 3 cbr 1000 ------- 2 1.0 5.0 138 150
- 1.222 2 3 cbr 1000 ------- 2 1.0 5.0 138 150
r 1.2272 2 3 cbr 1000 ------- 2 1.0 5.0 137 148
+ 1.23 2 3 cbr 1000 ------- 2 1.0 5.0 139 152
- 1.23 2 3 cbr 1000 ------- 2 1.0 5.0 139 152
r 1.2352 2 3 cbr 1000 ------- 2 1.0 5.0 138 150
+ 1.238 2 3 cbr 1000 ------- 2 1.0 5.0 140 154
- 1.238 2 3 cbr 1000 ------- 2 1.0 5.0 140 154
+ 1.242672 2 3 tcp 1040 ------- 1 0.0 4.0 7 155
- 1.242672 2 3 tcp 1040 ------- 1 0.0 4.0 7 155
r 1.2432 2 3 cbr 1000 ------- 2 1.0 5.0 139 152
+ 1.246 2 3 cbr 1000 ------- 2 1.0 5.0 141 157
- 1.246 2 3 cbr 1000 ------- 2 1.0 5.0 141 157
+ 1.250992 2 3 tcp 1040 ------- 1 0.0 4.0 8 156
- 1.250992 2 3 tcp 1040 ------- 1 0.0 4.0 8 156
r 1.2512 2 3 cbr 1000 ------- 2 1.0 5.0 140 154
+ 1.254 2 3 cbr 1000 ------- 2 1.0 5.0 142 160
- 1.25432 2 3 cbr 1000 ------- 2 1.0 5.0 142 160
r 1.256 2 3 tcp 1040 ------- 1 0.0 4.0 7 155
r 1.2592 2 3 cbr 1000 ------- 2 1.0 5.0 141 157
+ 1.259312 2 3 tcp 1040 ------- 1 0.0 4.0 9 158
- 1.259312 2 3 tcp 1040 ------- 1 0.0 4.0 9 158
+ 1.262 2 3 cbr 1000 ------- 2 1.0 5.0 143 163
- 1.26264 2 3 cbr 1000 ------- 2 1.0 5.0 143 163
r 1.26432 2 3 tcp 1040 ------- 1 0.0 4.0 8 156
r 1.26752 2 3 cbr 1000 ------- 2 1.0 5.0 142 160
+ 1.267632 2 3 tcp 1040 ------- 1 0.0 4.0 10 159
- 1.267632 2 3 tcp 1040 ------- 1 0.0 4.0 10 159
+ 1.27 2 3 cbr 1000 ------- 2 1.0 5.0 144 166
- 1.27096 2 3 cbr 1000 ------- 2 1.0 5.0 144 166
r 1.27264 2 3 tcp 1040 ------- 1 0.0 4.0 9 158
r 1.27584 2 3 cbr 1000 ------- 2 1.0 5.0 143 163
+ 1.275952 2 3 tcp 1040 ------- 1 0.0 4.0 11 161
- 1.275952 2 3 tcp 1040 ------- 1 0.0 4.0 11 161
+ 1.278 2 3 cbr 1000 ------- 2 1.0 5.0 145 167
- 1.27928 2 3 cbr 1000 ------- 2 1.0 5.0 145 167
r 1.28096 2 3 tcp 1040 ------- 1 0.0 4.0 10 159
r 1.28416 2 3 cbr 1000 ------- 2 1.0 5.0 144 166
+ 1.284272 2 3 tcp 1040 ------- 1 0.0 4.0 12 162
- 1.284272 2 3 tcp 1040 ------- 1 0.0 4.0 12 162
+ 1.286 2 3 cbr 1000 ------- 2 1.0 5.0 146 168
- 1.2876 2 3 cbr 1000 ------- 2 1.0 5.0 146 168
r 1.28928 2 3 tcp 1040 ------- 1 0.0 4.0 11 161
r 1.29248 2 3 cbr 1000 ------- 2 1.0 5.0 145 167
+ 1.292592 2 3 tcp 1040 ------- 1 0.0 4.0 13 164
- 1.292592 2 3 tcp 1040 ------- 1 0.0 4.0 13 164
+ 1.294 2 3 cbr 1000 ------- 2 1.0 5.0 147 170
- 1.29592 2 3 cbr 1000 ------- 2 1.0 5.0 147 170
r 1.2976 2 3 tcp 1040 ------- 1 0.0 4.0 12 162
r 1.3008 2 3 cbr 1000 ------- 2 1.0 5.0 146 168
+ 1.300912 2 3 tcp 1040 ------- 1 0.0 4.0 14 165
- 1.300912 2 3 tcp 1040 ------- 1 0.0 4.0 14 165
+ 1.302 2 3 cbr 1000 ------- 2 1.0 5.0 148 172
- 1.30424 2 3 cbr 1000 ------- 2 1.0 5.0 148 172
r 1.30592 2 3 tcp 1040 ------- 1 0.0 4.0 13 164
r 1.30912 2 3 cbr 1000 ------- 2 1.0 5.0 147 170
+ 1.31 2 3 cbr 1000 ------- 2 1.0 5.0 149 174
- 1.31 2 3 cbr 1000 ------- 2 1.0 5.0 149 174
r 1.31424 2 3 tcp 1040 ------- 1 0.0 4.0 14 165
r 1.31744 2 3 cbr 1000 ------- 2 1.0 5.0 148 172
+ 1.318 2 3 cbr 1000 ------- 2 1.0 5.0 150 176
- 1.318 2 3 cbr 1000 ------- 2 1.0 5.0 150 176
r 1.3232 2 3 cbr 1000 ------- 2 1.0 5.0 149 174
+ 1.323408 2 3 tcp 1040 ------- 1 0.0 4.0 15 177
- 1.323408 2 3 tcp 1040 ------- 1 0.0 4.0 15 177
+ 1.326 2 3 cbr 1000 ------- 2 1.0 5.0 151 180
- 1.326736 2 3 cbr 1000 ------- 2 1.0 5.0 151 180
r 1.3312 2 3 cbr 1000 ------- 2 1.0 5.0 150 176
+ 1.331728 2 3 tcp 1040 ------- 1 0.0 4.0 16 178
- 1.331728 2 3 tcp 1040 ------- 1 0.0 4.0 16 178
+ 1.334 2 3 cbr 1000 ------- 2 1.0 5.0 152 184
- 1.335056 2 3 cbr 1000 ------- 2 1.0 5.0 152 184
r 1.336736 2 3 tcp 1040 ------- 1 0.0 4.0 15 177
r 1.339936 2 3 cbr 1000 ------- 2 1.0 5.0 151 180
+ 1.340048 2 3 tcp 1040 ------- 1 0.0 4.0 17 181
- 1.340048 2 3 tcp 1040 ------- 1 0.0 4.0 17 181
+ 1.342 2 3 cbr 1000 ------- 2 1.0 5.0 153 187
- 1.343376 2 3 cbr 1000 ------- 2 1.0 5.0 153 187
r 1.345056 2 3 tcp 1040 ------- 1 0.0 4.0 16 178
r 1.348256 2 3 cbr 1000 ------- 2 1.0 5.0 152 184
+ 1.348368 2 3 tcp 1040 ------- 1 0.0 4.0 18 182
- 1.348368 2 3 tcp 1040 ------- 1 0.0 4.0 18 182
+ 1.35 2 3 cbr 1000 ------- 2 1.0 5.0 154 191
- 1.351696 2 3 cbr 1000 ------- 2 1.0 5.0 154 191
r 1.353376 2 3 tcp 1040 ------- 1 0.0 4.0 17 181
r 1.356576 2 3 cbr 1000 ------- 2 1.0 5.0 153 187
+ 1.356688 2 3 tcp 1040 ------- 1 0.0 4.0 19 185
- 1.356688 2 3 tcp 1040 ------- 1 0.0 4.0 19 185
+ 1.358 2 3 cbr 1000 ------- 2 1.0 5.0 155 195
- 1.360016 2 3 cbr 1000 ------- 2 1.0 5.0 155 195
r 1.361696 2 3 tcp 1040 ------- 1 0.0 4.0 18 182
r 1.364896 2 3 cbr 1000 ------- 2 1.0 5.0 154 191
+ 1.365008 2 3 tcp 1040 ------- 1 0.0 4.0 20 186
- 1.365008 2 3 tcp 1040 ------- 1 0.0 4.0 20 186
+ 1.366 2 3 cbr 1000 ------- 2 1.0 5.0 156 198
- 1.368336 2 3 cbr 1000 ------- 2 1.0 5.0 156 198
r 1.370016 2 3 tcp 1040 ------- 1 0.0 4.0 19 185
r 1.373216 2 3 cbr 1000 ------- 2 1.0 5.0 155 195
+ 1.373328 2 3 tcp 1040 ------- 1 0.0 4.0 21 189
- 1.373328 2 3 tcp 1040 ------- 1 0.0 4.0 21 189
+ 1.374 2 3 cbr 1000 ------- 2 1.0 5.0 157 202
- 1.376656 2 3 cbr 1000 ------- 2 1.0 5.0 157 202
r 1.378336 2 3 tcp 1040 ------- 1 0.0 4.0 20 186
r 1.381536 2 3 cbr 1000 ------- 2 1.0 5.0 156 198
+ 1.381648 2 3 tcp 1040 ------- 1 0.0 4.0 22 190
- 1.381648 2 3 tcp 1040 ------- 1 0.0 4.0 22 190
+ 1.382 2 3 cbr 1000 ------- 2 1.0 5.0 158 206
- 1.384976 2 3 cbr 1000 ------- 2 1.0 5.0 158 206
r 1.386656 2 3 tcp 1040 ------- 1 0.0 4.0 21 189
r 1.389856 2 3 cbr 1000 ------- 2 1.0 5.0 157 202
+ 1.389968 2 3 tcp 1040 ------- 1 0.0 4.0 23 193
- 1.389968 2 3 tcp 1040 ------- 1 0.0 4.0 23 193
+ 1.39 2 3 cbr 1000 ------- 2 1.0 5.0 159 208
- 1.393296 2 3 cbr 1000 ------- 2 1.0 5.0 159 208
r 1.394976 2 3 tcp 1040 ------- 1 0.0 4.0 22 190
+ 1.398 2 3 cbr 1000 ------- 2 1.0 5.0 160 209
- 1.398 2 3 cbr 1000 ------- 2 1.0 5.0 160 209
r 1.398176 2 3 cbr 1000 ------- 2 1.0 5.0 158 206
+ 1.398288 2 3 tcp 1040 ------- 1 0.0 4.0 24 194
- 1.4012 2 3 tcp 1040 ------- 1 0.0 4.0 24 194
r 1.403296 2 3 tcp 1040 ------- 1 0.0 4.0 23 193
+ 1.406 2 3 cbr 1000 ------- 2 1.0 5.0 161 213
- 1.406 2 3 cbr 1000 ------- 2 1.0 5.0 161 213
r 1.406496 2 3 cbr 1000 ------- 2 1.0 5.0 159 208
+ 1.406608 2 3 tcp 1040 ------- 1 0.0 4.0 25 196
- 1.4092 2 3 tcp 1040 ------- 1 0.0 4.0 25 196
r 1.4112 2 3 cbr 1000 ------- 2 1.0 5.0 160 209
+ 1.414 2 3 cbr 1000 ------- 2 1.0 5.0 162 217
- 1.414 2 3 cbr 1000 ------- 2 1.0 5.0 162 217
r 1.414528 2 3 tcp 1040 ------- 1 0.0 4.0 24 194
+ 1.414928 2 3 tcp 1040 ------- 1 0.0 4.0 26 197
- 1.4172 2 3 tcp 1040 ------- 1 0.0 4.0 26 197
r 1.4192 2 3 cbr 1000 ------- 2 1.0 5.0 161 213
+ 1.422 2 3 cbr 1000 ------- 2 1.0 5.0 163 221
- 1.422 2 3 cbr 1000 ------- 2 1.0 5.0 163 221
r 1.422528 2 3 tcp 1040 ------- 1 0.0 4.0 25 196
+ 1.423248 2 3 tcp 1040 ------- 1 0.0 4.0 27 199
- 1.4252 2 3 tcp 1040 ------- 1 0.0 4.0 27 199
r 1.4272 2 3 cbr 1000 ------- 2 1.0 5.0 162 217
+ 1.43 2 3 cbr 1000 ------- 2 1.0 5.0 164 225
- 1.43 2 3 cbr 1000 ------- 2 1.0 5.0 164 225
r 1.430528 2 3 tcp 1040 ------- 1 0.0 4.0 26 197
+ 1.431568 2 3 tcp 1040 ------- 1 0.0 4.0 28 200
- 1.4332 2 3 tcp 1040 ------- 1 0.0 4.0 28 200
r 1.4352 2 3 cbr 1000 ------- 2 1.0 5.0 163 221
+ 1.438 2 3 cbr 1000 ------- 2 1.0 5.0 165 228
- 1.438 2 3 cbr 1000 ------- 2 1.0 5.0 165 228
r 1.438528 2 3 tcp 1040 ------- 1 0.0 4.0 27 199
+ 1.439888 2 3 tcp 1040 ------- 1 0.0 4.0 29 203
- 1.4412 2 3 tcp 1040 ------- 1 0.0 4.0 29 203
r 1.4432 2 3 cbr 1000 ------- 2 1.0 5.0 164 225
+ 1.446 2 3 cbr 1000 ------- 2 1.0 5.0 166 231
- 1.446 2 3 cbr 1000 ------- 2 1.0 5.0 166 231
r 1.446528 2 3 tcp 1040 ------- 1 0.0 4.0 28 200
+ 1.448208 2 3 tcp 1040 ------- 1 0.0 4.0 30 204
- 1.4492 2 3 tcp 1040 ------- 1 0.0 4.0 30 204
r 1.4512 2 3 cbr 1000 ------- 2 1.0 5.0 165 228
+ 1.454 2 3 cbr 1000 ------- 2 1.0 5.0 167 234
- 1.454 2 3 cbr 1000 ------- 2 1.0 5.0 167 234
r 1.454528 2 3 tcp 1040 ------- 1 0.0 4.0 29 203
+ 1.456528 2 3 tcp 1040 ------- 1 0.0 4.0 31 211
- 1.4572 2 3 tcp 1040 ------- 1 0.0 4.0 31 211
r 1.4592 2 3 cbr 1000 ------- 2 1.0 5.0 166 231
+ 1.462 2 3 cbr 1000 ------- 2 1.0 5.0 168 236
- 1.462 2 3 cbr 1000 ------- 2 1.0 5.0 168 236
r 1.462528 2 3 tcp 1040 ------- 1 0.0 4.0 30 204
+ 1.464848 2 3 tcp 1040 ------- 1 0.0 4.0 32 212
- 1.4652 2 3 tcp 1040 ------- 1 0.0 4.0 32 212
r 1.4672 2 3 cbr 1000 ------- 2 1.0 5.0 167 234
+ 1.47 2 3 cbr 1000 ------- 2 1.0 5.0 169 239
- 1.47 2 3 cbr 1000 ------- 2 1.0 5.0 169 239
r 1.470528 2 3 tcp 1040 ------- 1 0.0 4.0 31 211
+ 1.473168 2 3 tcp 1040 ------- 1 0.0 4.0 33 215
- 1.4732 2 3 tcp 1040 ------- 1 0.0 4.0 33 215
r 1.4752 2 3 cbr 1000 ------- 2 1.0 5.0 168 236
+ 1.478 2 3 cbr 1000 ------- 2 1.0 5.0 170 242
- 1.478 2 3 cbr 1000 ------- 2 1.0 5.0 170 242
r 1.478528 2 3 tcp 1040 ------- 1 0.0 4.0 32 212
+ 1.481488 2 3 tcp 1040 ------- 1 0.0 4.0 34 216
- 1.481488 2 3 tcp 1040 ------- 1 0.0 4.0 34 216
r 1.4832 2 3 cbr 1000 ------- 2 1.0 5.0 169 239
+ 1.486 2 3 cbr 1000 ------- 2 1.0 5.0 171 245
- 1.486 2 3 cbr 1000 ------- 2 1.0 5.0 171 245
r 1.486528 2 3 tcp 1040 ------- 1 0.0 4.0 33 215
+ 1.489808 2 3 tcp 1040 ------- 1 0.0 4.0 35 219
- 1.489808 2 3 tcp 1040 ------- 1 0.0 4.0 35 219
r 1.4912 2 3 cbr 1000 ------- 2 1.0 5.0 170 242
+ 1.494 2 3 cbr 1000 ------- 2 1.0 5.0 172 248
- 1.494 2 3 cbr 1000 ------- 2 1.0 5.0 172 248
r 1.494816 2 3 tcp 1040 ------- 1 0.0 4.0 34 216
+ 1.498128 2 3 tcp 1040 ------- 1 0.0 4.0 36 220
- 1.498128 2 3 tcp 1040 ------- 1 0.0 4.0 36 220
r 1.4992 2 3 cbr 1000 ------- 2 1.0 5.0 171 245
+ 1.502 2 3 cbr 1000 ------- 2 1.0 5.0 173 251
- 1.502 2 3 cbr 1000 ------- 2 1.0 5.0 173 251
r 1.503136 2 3 tcp 1040 ------- 1 0.0 4.0 35 219
+ 1.506448 2 3 tcp 1040 ------- 1 0.0 4.0 37 223
- 1.506448 2 3 tcp 1040 ------- 1 0.0 4.0 37 223
r 1.5072 2 3 cbr 1000 ------- 2 1.0 5.0 172 248
+ 1.51 2 3 cbr 1000 ------- 2 1.0 5.0 174 254
- 1.51 2 3 cbr 1000 ------- 2 1.0 5.0 174 254
r 1.511456 2 3 tcp 1040 ------- 1 0.0 4.0 36 220
+ 1.514768 2 3 tcp 1040 ------- 1 0.0 4.0 38 224
- 1.514768 2 3 tcp 1040 ------- 1 0.0 4.0 38 224
r 1.5152 2 3 cbr 1000 ------- 2 1.0 5.0 173 251
+ 1.518 2 3 cbr 1000 ------- 2 1.0 5.0 175 257
- 1.518096 2 3 cbr 1000 ------- 2 1.0 5.0 175 257
r 1.519776 2 3 tcp 1040 ------- 1 0.0 4.0 37 223
+ 1.523088 2 3 tcp 1040 ------- 1 0.0 4.0 39 227
- 1.523088 2 3 tcp 1040 ------- 1 0.0 4.0 39 227
r 1.5232 2 3 cbr 1000 ------- 2 1.0 5.0 174 254