V -t * -v 1.0a5 -a 0
A -t * -n 1 -p 0 -o 0x7fffffff -c 30 -a 1
A -t * -h 1 -m 1073741823 -s 0
c -t * -i 1 -n Blue
c -t * -i 2 -n Red
n -t * -a 4 -s 4 -S UP -v circle -c black -i black
n -t * -a 0 -s 0 -S UP -v circle -c black -i black
n -t * -a 1 -s 1 -S UP -v circle -c black -i black
n -t * -a 2 -s 2 -S UP -v circle -c black -i black
n -t * -a 3 -s 3 -S UP -v circle -c black -i black
l -t * -s 1 -d 0 -S UP -r 2000000 -D 0.01 -c black -o left-down
l -t * -s 0 -d 4 -S UP -r 2000000 -D 0.01 -c black -o right-down
l -t * -s 4 -d 3 -S UP -r 2000000 -D 0.01 -c black -o right-up
l -t * -s 3 -d 2 -S UP -r 2000000 -D 0.01 -c black -o up
l -t * -s 2 -d 1 -S UP -r 2000000 -D 0.01 -c black -o left
q -t * -s 0 -d 4 -a 1.0
q -t * -s 4 -d 0 -a 1.0
+ -t 0.000169788487334637 -s 0 -d 1 -p rtProtoDV -e 5 -c 0 -i 0 -a 0 -x {0.2 1.1 -1 ------- null}
- -t 0.000169788487334637 -s 0 -d 1 -p rtProtoDV -e 5 -c 0 -i 0 -a 0 -x {0.2 1.1 -1 ------- null}
h -t 0.000169788487334637 -s 0 -d 1 -p rtProtoDV -e 5 -c 0 -i 0 -a 0 -x {0.2 1.1 -1 ------- null}
+ -t 0.000169788487334637 -s 0 -d 4 -p rtProtoDV -e 5 -c 0 -i 1 -a 0 -x {0.2 4.3 -1 ------- null}
- -t 0.000169788487334637 -s 0 -d 4 -p rtProtoDV -e 5 -c 0 -i 1 -a 0 -x {0.2 4.3 -1 ------- null}
h -t 0.000169788487334637 -s 0 -d 4 -p rtProtoDV -e 5 -c 0 -i 1 -a 0 -x {0.2 4.3 -1 ------- null}
+ -t 0.00710233021858257 -s 2 -d 1 -p rtProtoDV -e 5 -c 0 -i 2 -a 0 -x {2.2 1.1 -1 ------- null}
- -t 0.00710233021858257 -s 2 -d 1 -p rtProtoDV -e 5 -c 0 -i 2 -a 0 -x {2.2 1.1 -1 ------- null}
h -t 0.00710233021858257 -s 2 -d 1 -p rtProtoDV -e 5 -c 0 -i 2 -a 0 -x {2.2 1.1 -1 ------- null}
+ -t 0.00710233021858257 -s 2 -d 3 -p rtProtoDV -e 5 -c 0 -i 3 -a 0 -x {2.2 3.1 -1 ------- null}
- -t 0.00710233021858257 -s 2 -d 3 -p rtProtoDV -e 5 -c 0 -i 3 -a 0 -x {2.2 3.1 -1 ------- null}
h -t 0.00710233021858257 -s 2 -d 3 -p rtProtoDV -e 5 -c 0 -i 3 -a 0 -x {2.2 3.1 -1 ------- null}
r -t 0.0101897884873346 -s 0 -d 1 -p rtProtoDV -e 5 -c 0 -i 0 -a 0 -x {0.2 1.1 -1 ------- null}
+ -t 0.0101897884873346 -s 1 -d 0 -p rtProtoDV -e 5 -c 0 -i 4 -a 0 -x {1.1 0.2 -1 ------- null}
- -t 0.0101897884873346 -s 1 -d 0 -p rtProtoDV -e 5 -c 0 -i 4 -a 0 -x {1.1 0.2 -1 ------- null}
h -t 0.0101897884873346 -s 1 -d 0 -p rtProtoDV -e 5 -c 0 -i 4 -a 0 -x {1.1 0.2 -1 ------- null}
+ -t 0.0101897884873346 -s 1 -d 2 -p rtProtoDV -e 5 -c 0 -i 5 -a 0 -x {1.1 2.2 -1 ------- null}
- -t 0.0101897884873346 -s 1 -d 2 -p rtProtoDV -e 5 -c 0 -i 5 -a 0 -x {1.1 2.2 -1 ------- null}
h -t 0.0101897884873346 -s 1 -d 2 -p rtProtoDV -e 5 -c 0 -i 5 -a 0 -x {1.1 2.2 -1 ------- null}
r -t 0.0101897884873346 -s 0 -d 4 -p rtProtoDV -e 5 -c 0 -i 1 -a 0 -x {0.2 4.3 -1 ------- null}
+ -t 0.0101897884873346 -s 4 -d 0 -p rtProtoDV -e 5 -c 0 -i 6 -a 0 -x {4.3 0.2 -1 ------- null}
- -t 0.0101897884873346 -s 4 -d 0 -p rtProtoDV -e 5 -c 0 -i 6 -a 0 -x {4.3 0.2 -1 ------- null}
h -t 0.0101897884873346 -s 4 -d 0 -p rtProtoDV -e 5 -c 0 -i 6 -a 0 -x {4.3 0.2 -1 ------- null}
+ -t 0.0101897884873346 -s 4 -d 3 -p rtProtoDV -e 5 -c 0 -i 7 -a 0 -x {4.3 3.1 -1 ------- null}
- -t 0.0101897884873346 -s 4 -d 3 -p rtProtoDV -e 5 -c 0 -i 7 -a 0 -x {4.3 3.1 -1 ------- null}
h -t 0.0101897884873346 -s 4 -d 3 -p rtProtoDV -e 5 -c 0 -i 7 -a 0 -x {4.3 3.1 -1 ------- null}
r -t 0.0171223302185826 -s 2 -d 1 -p rtProtoDV -e 5 -c 0 -i 2 -a 0 -x {2.2 1.1 -1 ------- null}
+ -t 0.0171223302185826 -s 1 -d 0 -p rtProtoDV -e 5 -c 0 -i 8 -a 0 -x {1.1 0.2 -1 ------- null}
- -t 0.0171223302185826 -s 1 -d 0 -p rtProtoDV -e 5 -c 0 -i 8 -a 0 -x {1.1 0.2 -1 ------- null}
h -t 0.0171223302185826 -s 1 -d 0 -p rtProtoDV -e 5 -c 0 -i 8 -a 0 -x {1.1 0.2 -1 ------- null}
+ -t 0.0171223302185826 -s 1 -d 2 -p rtProtoDV -e 5 -c 0 -i 9 -a 0 -x {1.1 2.2 -1 ------- null}
- -t 0.0171223302185826 -s 1 -d 2 -p rtProtoDV -e 5 -c 0 -i 9 -a 0 -x {1.1 2.2 -1 ------- null}
h -t 0.0171223302185826 -s 1 -d 2 -p rtProtoDV -e 5 -c 0 -i 9 -a 0 -x {1.1 2.2 -1 ------- null}
r -t 0.0171223302185826 -s 2 -d 3 -p rtProtoDV -e 5 -c 0 -i 3 -a 0 -x {2.2 3.1 -1 ------- null}
+ -t 0.0171223302185826 -s 3 -d 2 -p rtProtoDV -e 5 -c 0 -i 10 -a 0 -x {3.1 2.2 -1 ------- null}
- -t 0.0171223302185826 -s 3 -d 2 -p rtProtoDV -e 5 -c 0 -i 10 -a 0 -x {3.1 2.2 -1 ------- null}
h -t 0.0171223302185826 -s 3 -d 2 -p rtProtoDV -e 5 -c 0 -i 10 -a 0 -x {3.1 2.2 -1 ------- null}
+ -t 0.0171223302185826 -s 3 -d 4 -p rtProtoDV -e 5 -c 0 -i 11 -a 0 -x {3.1 4.3 -1 ------- null}
- -t 0.0171223302185826 -s 3 -d 4 -p rtProtoDV -e 5 -c 0 -i 11 -a 0 -x {3.1 4.3 -1 ------- null}
h -t 0.0171223302185826 -s 3 -d 4 -p rtProtoDV -e 5 -c 0 -i 11 -a 0 -x {3.1 4.3 -1 ------- null}
r -t 0.0202097884873346 -s 1 -d 0 -p rtProtoDV -e 5 -c 0 -i 4 -a 0 -x {1.1 0.2 -1 ------- null}
+ -t 0.0202097884873346 -s 0 -d 1 -p rtProtoDV -e 5 -c 0 -i 12 -a 0 -x {0.2 1.1 -1 ------- null}
- -t 0.0202097884873346 -s 0 -d 1 -p rtProtoDV -e 5 -c 0 -i 12 -a 0 -x {0.2 1.1 -1 ------- null}
h -t 0.0202097884873346 -s 0 -d 1 -p rtProtoDV -e 5 -c 0 -i 12 -a 0 -x {0.2 1.1 -1 ------- null}
+ -t 0.0202097884873346 -s 0 -d 4 -p rtProtoDV -e 5 -c 0 -i 13 -a 0 -x {0.2 4.3 -1 ------- null}
- -t 0.0202097884873346 -s 0 -d 4 -p rtProtoDV -e 5 -c 0 -i 13 -a 0 -x {0.2 4.3 -1 ------- null}
h -t 0.0202097884873346 -s 0 -d 4 -p rtProtoDV -e 5 -c 0 -i 13 -a 0 -x {0.2 4.3 -1 ------- null}
r -t 0.0202097884873346 -s 1 -d 2 -p rtProtoDV -e 5 -c 0 -i 5 -a 0 -x {1.1 2.2 -1 ------- null}
+ -t 0.0202097884873346 -s 2 -d 1 -p rtProtoDV -e 5 -c 0 -i 14 -a 0 -x {2.2 1.1 -1 ------- null}
- -t 0.0202097884873346 -s 2 -d 1 -p rtProtoDV -e 5 -c 0 -i 14 -a 0 -x {2.2 1.1 -1 ------- null}
h -t 0.0202097884873346 -s 2 -d 1 -p rtProtoDV -e 5 -c 0 -i 14 -a 0 -x {2.2 1.1 -1 ------- null}
+ -t 0.0202097884873346 -s 2 -d 3 -p rtProtoDV -e 5 -c 0 -i 15 -a 0 -x {2.2 3.1 -1 ------- null}
- -t 0.0202097884873346 -s 2 -d 3 -p rtProtoDV -e 5 -c 0 -i 15 -a 0 -x {2.2 3.1 -1 ------- null}
h -t 0.0202097884873346 -s 2 -d 3 -p rtProtoDV -e 5 -c 0 -i 15 -a 0 -x {2.2 3.1 -1 ------- null}
r -t 0.0202097884873346 -s 4 -d 0 -p rtProtoDV -e 5 -c 0 -i 6 -a 0 -x {4.3 0.2 -1 ------- null}
+ -t 0.0202097884873346 -s 0 -d 1 -p rtProtoDV -e 5 -c 0 -i 16 -a 0 -x {0.2 1.1 -1 ------- null}
+ -t 0.0202097884873346 -s 0 -d 4 -p rtProtoDV -e 5 -c 0 -i 17 -a 0 -x {0.2 4.3 -1 ------- null}
r -t 0.0202097884873346 -s 4 -d 3 -p rtProtoDV -e 5 -c 0 -i 7 -a 0 -x {4.3 3.1 -1 ------- null}
+ -t 0.0202097884873346 -s 3 -d 2 -p rtProtoDV -e 5 -c 0 -i 18 -a 0 -x {3.1 2.2 -1 ------- null}
- -t 0.0202097884873346 -s 3 -d 2 -p rtProtoDV -e 5 -c 0 -i 18 -a 0 -x {3.1 2.2 -1 ------- null}
h -t 0.0202097884873346 -s 3 -d 2 -p rtProtoDV -e 5 -c 0 -i 18 -a 0 -x {3.1 2.2 -1 ------- null}
+ -t 0.0202097884873346 -s 3 -d 4 -p rtProtoDV -e 5 -c 0 -i 19 -a 0 -x {3.1 4.3 -1 ------- null}
- -t 0.0202097884873346 -s 3 -d 4 -p rtProtoDV -e 5 -c 0 -i 19 -a 0 -x {3.1 4.3 -1 ------- null}
h -t 0.0202097884873346 -s 3 -d 4 -p rtProtoDV -e 5 -c 0 -i 19 -a 0 -x {3.1 4.3 -1 ------- null}
- -t 0.0202297884873346 -s 0 -d 1 -p rtProtoDV -e 5 -c 0 -i 16 -a 0 -x {0.2 1.1 -1 ------- null}
h -t 0.0202297884873346 -s 0 -d 1 -p rtProtoDV -e 5 -c 0 -i 16 -a 0 -x {0.2 1.1 -1 ------- null}
- -t 0.0202297884873346 -s 0 -d 4 -p rtProtoDV -e 5 -c 0 -i 17 -a 0 -x {0.2 4.3 -1 ------- null}
h -t 0.0202297884873346 -s 0 -d 4 -p rtProtoDV -e 5 -c 0 -i 17 -a 0 -x {0.2 4.3 -1 ------- null}
r -t 0.0271423302185826 -s 1 -d 0 -p rtProtoDV -e 5 -c 0 -i 8 -a 0 -x {1.1 0.2 -1 ------- null}
r -t 0.0271423302185826 -s 1 -d 2 -p rtProtoDV -e 5 -c 0 -i 9 -a 0 -x {1.1 2.2 -1 ------- null}
r -t 0.0271423302185826 -s 3 -d 2 -p rtProtoDV -e 5 -c 0 -i 10 -a 0 -x {3.1 2.2 -1 ------- null}
+ -t 0.0271423302185826 -s 2 -d 1 -p rtProtoDV -e 5 -c 0 -i 20 -a 0 -x {2.2 1.1 -1 ------- null}
- -t 0.0271423302185826 -s 2 -d 1 -p rtProtoDV -e 5 -c 0 -i 20 -a 0 -x {2.2 1.1 -1 ------- null}
h -t 0.0271423302185826 -s 2 -d 1 -p rtProtoDV -e 5 -c 0 -i 20 -a 0 -x {2.2 1.1 -1 ------- null}
+ -t 0.0271423302185826 -s 2 -d 3 -p rtProtoDV -e 5 -c 0 -i 21 -a 0 -x {2.2 3.1 -1 ------- null}
- -t 0.0271423302185826 -s 2 -d 3 -p rtProtoDV -e 5 -c 0 -i 21 -a 0 -x {2.2 3.1 -1 ------- null}
h -t 0.0271423302185826 -s 2 -d 3 -p rtProtoDV -e 5 -c 0 -i 21 -a 0 -x {2.2 3.1 -1 ------- null}
r -t 0.0271423302185826 -s 3 -d 4 -p rtProtoDV -e 5 -c 0 -i 11 -a 0 -x {3.1 4.3 -1 ------- null}
+ -t 0.0271423302185826 -s 4 -d 0 -p rtProtoDV -e 5 -c 0 -i 22 -a 0 -x {4.3 0.2 -1 ------- null}
- -t 0.0271423302185826 -s 4 -d 0 -p rtProtoDV -e 5 -c 0 -i 22 -a 0 -x {4.3 0.2 -1 ------- null}
h -t 0.0271423302185826 -s 4 -d 0 -p rtProtoDV -e 5 -c 0 -i 22 -a 0 -x {4.3 0.2 -1 ------- null}
+ -t 0.0271423302185826 -s 4 -d 3 -p rtProtoDV -e 5 -c 0 -i 23 -a 0 -x {4.3 3.1 -1 ------- null}
- -t 0.0271423302185826 -s 4 -d 3 -p rtProtoDV -e 5 -c 0 -i 23 -a 0 -x {4.3 3.1 -1 ------- null}
h -t 0.0271423302185826 -s 4 -d 3 -p rtProtoDV -e 5 -c 0 -i 23 -a 0 -x {4.3 3.1 -1 ------- null}
r -t 0.0302297884873346 -s 0 -d 1 -p rtProtoDV -e 5 -c 0 -i 12 -a 0 -x {0.2 1.1 -1 ------- null}
r -t 0.0302297884873346 -s 0 -d 4 -p rtProtoDV -e 5 -c 0 -i 13 -a 0 -x {0.2 4.3 -1 ------- null}
r -t 0.0302297884873346 -s 2 -d 1 -p rtProtoDV -e 5 -c 0 -i 14 -a 0 -x {2.2 1.1 -1 ------- null}
r -t 0.0302297884873346 -s 2 -d 3 -p rtProtoDV -e 5 -c 0 -i 15 -a 0 -x {2.2 3.1 -1 ------- null}
r -t 0.0302297884873346 -s 3 -d 2 -p rtProtoDV -e 5 -c 0 -i 18 -a 0 -x {3.1 2.2 -1 ------- null}
r -t 0.0302297884873346 -s 3 -d 4 -p rtProtoDV -e 5 -c 0 -i 19 -a 0 -x {3.1 4.3 -1 ------- null}
r -t 0.0302497884873346 -s 0 -d 1 -p rtProtoDV -e 5 -c 0 -i 16 -a 0 -x {0.2 1.1 -1 ------- null}
r -t 0.0302497884873346 -s 0 -d 4 -p rtProtoDV -e 5 -c 0 -i 17 -a 0 -x {0.2 4.3 -1 ------- null}
r -t 0.0371623302185826 -s 2 -d 1 -p rtProtoDV -e 5 -c 0 -i 20 -a 0 -x {2.2 1.1 -1 ------- null}
r -t 0.0371623302185826 -s 2 -d 3 -p rtProtoDV -e 5 -c 0 -i 21 -a 0 -x {2.2 3.1 -1 ------- null}
r -t 0.0371623302185826 -s 4 -d 0 -p rtProtoDV -e 5 -c 0 -i 22 -a 0 -x {4.3 0.2 -1 ------- null}
r -t 0.0371623302185826 -s 4 -d 3 -p rtProtoDV -e 5 -c 0 -i 23 -a 0 -x {4.3 3.1 -1 ------- null}
+ -t 0.04406133552271 -s 3 -d 2 -p rtProtoDV -e 5 -c 0 -i 24 -a 0 -x {3.1 2.2 -1 ------- null}
- -t 0.04406133552271 -s 3 -d 2 -p rtProtoDV -e 5 -c 0 -i 24 -a 0 -x {3.1 2.2 -1 ------- null}
h -t 0.04406133552271 -s 3 -d 2 -p rtProtoDV -e 5 -c 0 -i 24 -a 0 -x {3.1 2.2 -1 ------- null}
+ -t 0.04406133552271 -s 3 -d 4 -p rtProtoDV -e 5 -c 0 -i 25 -a 0 -x {3.1 4.3 -1 ------- null}
- -t 0.04406133552271 -s 3 -d 4 -p rtProtoDV -e 5 -c 0 -i 25 -a 0 -x {3.1 4.3 -1 ------- null}
h -t 0.04406133552271 -s 3 -d 4 -p rtProtoDV -e 5 -c 0 -i 25 -a 0 -x {3.1 4.3 -1 ------- null}
r -t 0.05408133552271 -s 3 -d 2 -p rtProtoDV -e 5 -c 0 -i 24 -a 0 -x {3.1 2.2 -1 ------- null}
r -t 0.05408133552271 -s 3 -d 4 -p rtProtoDV -e 5 -c 0 -i 25 -a 0 -x {3.1 4.3 -1 ------- null}
+ -t 0.1 -s 0 -d 4 -p cbr -e 1000 -c 2 -i 26 -a 2 -x {0.0 4.1 0 ------- null}
- -t 0.1 -s 0 -d 4 -p cbr -e 1000 -c 2 -i 26 -a 2 -x {0.0 4.1 0 ------- null}
h -t 0.1 -s 0 -d 4 -p cbr -e 1000 -c 2 -i 26 -a 2 -x {0.0 4.1 -1 ------- null}
+ -t 0.108 -s 0 -d 4 -p cbr -e 1000 -c 2 -i 27 -a 2 -x {0.0 4.1 1 ------- null}
- -t 0.108 -s 0 -d 4 -p cbr -e 1000 -c 2 -i 27 -a 2 -x {0.0 4.1 1 ------- null}
h -t 0.108 -s 0 -d 4 -p cbr -e 1000 -c 2 -i 27 -a 2 -x {0.0 4.1 -1 ------- null}
r -t 0.114 -s 0 -d 4 -p cbr -e 1000 -c 2 -i 26 -a 2 -x {0.0 4.1 0 ------- null}
+ -t 0.116 -s 0 -d 4 -p cbr -e 1000 -c 2 -i 28 -a 2 -x {0.0 4.1 2 ------- null}
- -t 0.116 -s 0 -d 4 -p cbr -e 1000 -c 2 -i 28 -a 2 -x {0.0 4.1 2 ------- null}
h -t 0.116 -s 0 -d 4 -p cbr -e 1000 -c 2 -i 28 -a 2 -x {0.0 4.1 -1 ------- null}
r -t 0.122 -s 0 -d 4 -p cbr -e 1000 -c 2 -i 27 -a 2 -x {0.0 4.1 1 ------- null}
+ -t 0.124 -s 0 -d 4 -p cbr -e 1000 -c 2 -i 29 -a 2 -x {0.0 4.1 3 ------- null}
- -t 0.124 -s 0 -d 4 -p cbr -e 1000 -c 2 -i 29 -a 2 -x {0.0 4.1 3 ------- null}
h -t 0.124 -s 0 -d 4 -p cbr -e 1000 -c 2 -i 29 -a 2 -x {0.0 4.1 -1 ------- null}
r -t 0.13 -s 0 -d 4 -p cbr -e 1000 -c 2 -i 28 -a 2 -x {0.0 4.1 2 ------- null}
+ -t 0.132 -s 0 -d 4 -p cbr -e 1000 -c 2 -i 30 -a 2 -x {0.0 4.1 4 ------- null}
- -t 0.132 -s 0 -d 4 -p cbr -e 1000 -c 2 -i 30 -a 2 -x {0.0 4.1 4 ------- null}
h -t 0.132 -s 0 -d 4 -p cbr -e 1000 -c 2 -i 30 -a 2 -x {0.0 4.1 -1 ------- null}
r -t 0.138 -s 0 -d 4 -p cbr -e 1000 -c 2 -i 29 -a 2 -x {0.0 4.1 3 ------- null}
+ -t 0.14 -s 0 -d 4 -p cbr -e 1000 -c 2 -i 31 -a 2 -x {0.0 4.1 5 ------- null}
- -t 0.14 -s 0 -d 4 -p cbr -e 1000 -c 2 -i 31 -a 2 -x {0.0 4.1 5 ------- null}
h -t 0.14 -s 0 -d 4 -p cbr -e 1000 -c 2 -i 31 -a 2 -x {0.0 4.1 -1 ------- null}
r -t 0.146 -s 0 -d 4 -p cbr -e 1000 -c 2 -i 30 -a 2 -x {0.0 4.1 4 ------- null}
+ -t 0.148 -s 0 -d 4 -p cbr -e 1000 -c 2 -i 32 -a 2 -x {0.0 4.1 6 ------- null}
- -t 0.148 -s 0 -d 4 -p cbr -e 1000 -c 2 -i 32 -a 2 -x {0.0 4.1 6 ------- null}
h -t 0.148 -s 0 -d 4 -p cbr -e 1000 -c 2 -i 32 -a 2 -x {0.0 4.1 -1 ------- null}
r -t 0.154 -s 0 -d 4 -p cbr -e 1000 -c 2 -i 31 -a 2 -x {0.0 4.1 5 ------- null}
+ -t 0.156 -s 0 -d 4 -p cbr -e 1000 -c 2 -i 33 -a 2 -x {0.0 4.1 7 ------- null}
- -t 0.156 -s 0 -d 4 -p cbr -e 1000 -c 2 -i 33 -a 2 -x {0.0 4.1 7 ------- null}
h -t 0.156 -s 0 -d 4 -p cbr -e 1000 -c 2 -i 33 -a 2 -x {0.0 4.1 -1 ------- null}
r -t 0.162 -s 0 -d 4 -p cbr -e 1000 -c 2 -i 32 -a 2 -x {0.0 4.1 6 ------- null}
+ -t 0.164 -s 0 -d 4 -p cbr -e 1000 -c 2 -i 34 -a 2 -x {0.0 4.1 8 ------- null}
- -t 0.164 -s 0 -d 4 -p cbr -e 1000 -c 2 -i 34 -a 2 -x {0.0 4.1 8 ------- null}
h -t 0.164 -s 0 -d 4 -p cbr -e 1000 -c 2 -i 34 -a 2 -x {0.0 4.1 -1 ------- null}
r -t 0.17 -s 0 -d 4 -p cbr -e 1000 -c 2 -i 33 -a 2 -x {0.0 4.1 7 ------- null}
+ -t 0.172 -s 0 -d 4 -p cbr -e 1000 -c 2 -i 35 -a 2 -x {0.0 4.1 9 ------- null}
- -t 0.172 -s 0 -d 4 -p cbr -e 1000 -c 2 -i 35 -a 2 -x {0.0 4.1 9 ------- null}
h -t 0.172 -s 0 -d 4 -p cbr -e 1000 -c 2 -i 35 -a 2 -x {0.0 4.1 -1 ------- null}
r -t 0.178 -s 0 -d 4 -p cbr -e 1000 -c 2 -i 34 -a 2 -x {0.0 4.1 8 ------- null}
+ -t 0.18 -s 0 -d 4 -p cbr -e 1000 -c 2 -i 36 -a 2 -x {0.0 4.1 10 ------- null}
- -t 0.18 -s 0 -d 4 -p cbr -e 1000 -c 2 -i 36 -a 2 -x {0.0 4.1 10 ------- null}
h -t 0.18 -s 0 -d 4 -p cbr -e 1000 -c 2 -i 36 -a 2 -x {0.0 4.1 -1 ------- null}
r -t 0.186 -s 0 -d 4 -p cbr -e 1000 -c 2 -i 35 -a 2 -x {0.0 4.1 9 ------- null}
+ -t 0.188 -s 0 -d 4 -p cbr -e 1000 -c 2 -i 37 -a 2 -x {0.0 4.1 11 ------- null}
- -t 0.188 -s 0 -d 4 -p cbr -e 1000 -c 2 -i 37 -a 2 -x {0.0 4.1 11 ------- null}
h -t 0.188 -s 0 -d 4 -p cbr -e 1000 -c 2 -i 37 -a 2 -x {0.0 4.1 -1 ------- null}
r -t 0.194 -s 0 -d 4 -p cbr -e 1000 -c 2 -i 36 -a 2 -x {0.0 4.1 10 ------- null}
+ -t 0.196 -s 0 -d 4 -p cbr -e 1000 -c 2 -i 38 -a 2 -x {0.0 4.1 12 ------- null}
- -t 0.196 -s 0 -d 4 -p cbr -e 1000 -c 2 -i 38 -a 2 -x {0.0 4.1 12 ------- null}
h -t 0.196 -s 0 -d 4 -p cbr -e 1000 -c 2 -i 38 -a 2 -x {0.0 4.1 -1 ------- null}
r -t 0.202 -s 0 -d 4 -p cbr -e 1000 -c 2 -i 37 -a 2 -x {0.0 4.1 11 ------- null}
+ -t 0.204 -s 0 -d 4 -p cbr -e 1000 -c 2 -i 39 -a 2 -x {0.0 4.1 13 ------- null}
- -t 0.204 -s 0 -d 4 -p cbr -e 1000 -c 2 -i 39 -a 2 -x {0.0 4.1 13 ------- null}
h -t 0.204 -s 0 -d 4 -p cbr -e 1000 -c 2 -i 39 -a 2 -x {0.0 4.1 -1 ------- null}
r -t 0.21 -s 0 -d 4 -p cbr -e 1000 -c 2 -i 38 -a 2 -x {0.0 4.1 12 ------- null}
+ -t 0.212 -s 0 -d 4 -p cbr -e 1000 -c 2 -i 40 -a 2 -x {0.0 4.1 14 ------- null}
- -t 0.212 -s 0 -d 4 -p cbr -e 1000 -c 2 -i 40 -a 2 -x {0.0 4.1 14 ------- null}
h -t 0.212 -s 0 -d 4 -p cbr -e 1000 -c 2 -i 40 -a 2 -x {0.0 4.1 -1 ------- null}
r -t 0.218 -s 0 -d 4 -p cbr -e 1000 -c 2 -i 39 -a 2 -x {0.0 4.1 13 ------- null}
+ -t 0.22 -s 0 -d 4 -p cbr -e 1000 -c 2 -i 41 -a 2 -x {0.0 4.1 15 ------- null}
- -t 0.22 -s 0 -d 4 -p cbr -e 1000 -c 2 -i 41 -a 2 -x {0.0 4.1 15 ------- null}
h -t 0.22 -s 0 -d 4 -p cbr -e 1000 -c 2 -i 41 -a 2 -x {0.0 4.1 -1 ------- null}
+ -t 0.22058669092161 -s 4 -d 0 -p rtProtoDV -e 5 -c 0 -i 42 -a 0 -x {4.3 0.2 -1 ------- null}
- -t 0.22058669092161 -s 4 -d 0 -p rtProtoDV -e 5 -c 0 -i 42 -a 0 -x {4.3 0.2 -1 ------- null}
h -t 0.22058669092161 -s 4 -d 0 -p rtProtoDV -e 5 -c 0 -i 42 -a 0 -x {4.3 0.2 -1 ------- null}
+ -t 0.22058669092161 -s 4 -d 3 -p rtProtoDV -e 5 -c 0 -i 43 -a 0 -x {4.3 3.1 -1 ------- null}
- -t 0.22058669092161 -s 4 -d 3 -p rtProtoDV -e 5 -c 0 -i 43 -a 0 -x {4.3 3.1 -1 ------- null}
h -t 0.22058669092161 -s 4 -d 3 -p rtProtoDV -e 5 -c 0 -i 43 -a 0 -x {4.3 3.1 -1 ------- null}
r -t 0.226 -s 0 -d 4 -p cbr -e 1000 -c 2 -i 40 -a 2 -x {0.0 4.1 14 ------- null}
+ -t 0.228 -s 0 -d 4 -p cbr -e 1000 -c 2 -i 44 -a 2 -x {0.0 4.1 16 ------- null}
- -t 0.228 -s 0 -d 4 -p cbr -e 1000 -c 2 -i 44 -a 2 -x {0.0 4.1 16 ------- null}
h -t 0.228 -s 0 -d 4 -p cbr -e 1000 -c 2 -i 44 -a 2 -x {0.0 4.1 -1 ------- null}
r -t 0.23060669092161 -s 4 -d 0 -p rtProtoDV -e 5 -c 0 -i 42 -a 0 -x {4.3 0.2 -1 ------- null}
r -t 0.23060669092161 -s 4 -d 3 -p rtProtoDV -e 5 -c 0 -i 43 -a 0 -x {4.3 3.1 -1 ------- null}
r -t 0.234 -s 0 -d 4 -p cbr -e 1000 -c 2 -i 41 -a 2 -x {0.0 4.1 15 ------- null}
+ -t 0.236 -s 0 -d 4 -p cbr -e 1000 -c 2 -i 45 -a 2 -x {0.0 4.1 17 ------- null}
- -t 0.236 -s 0 -d 4 -p cbr -e 1000 -c 2 -i 45 -a 2 -x {0.0 4.1 17 ------- null}
h -t 0.236 -s 0 -d 4 -p cbr -e 1000 -c 2 -i 45 -a 2 -x {0.0 4.1 -1 ------- null}
r -t 0.242 -s 0 -d 4 -p cbr -e 1000 -c 2 -i 44 -a 2 -x {0.0 4.1 16 ------- null}
+ -t 0.244 -s 0 -d 4 -p cbr -e 1000 -c 2 -i 46 -a 2 -x {0.0 4.1 18 ------- null}
- -t 0.244 -s 0 -d 4 -p cbr -e 1000 -c 2 -i 46 -a 2 -x {0.0 4.1 18 ------- null}
h -t 0.244 -s 0 -d 4 -p cbr -e 1000 -c 2 -i 46 -a 2 -x {0.0 4.1 -1 ------- null}
r -t 0.25 -s 0 -d 4 -p cbr -e 1000 -c 2 -i 45 -a 2 -x {0.0 4.1 17 ------- null}
+ -t 0.252 -s 0 -d 4 -p cbr -e 1000 -c 2 -i 47 -a 2 -x {0.0 4.1 19 ------- null}
- -t 0.252 -s 0 -d 4 -p cbr -e 1000 -c 2 -i 47 -a 2 -x {0.0 4.1 19 ------- null}
h -t 0.252 -s 0 -d 4 -p cbr -e 1000 -c 2 -i 47 -a 2 -x {0.0 4.1 -1 ------- null}
r -t 0.258 -s 0 -d 4 -p cbr -e 1000 -c 2 -i 46 -a 2 -x {0.0 4.1 18 ------- null}
+ -t 0.26 -s 0 -d 4 -p cbr -e 1000 -c 2 -i 48 -a 2 -x {0.0 4.1 20 ------- null}
- -t 0.26 -s 0 -d 4 -p cbr -e 1000 -c 2 -i 48 -a 2 -x {0.0 4.1 20 ------- null}
h -t 0.26 -s 0 -d 4 -p cbr -e 1000 -c 2 -i 48 -a 2 -x {0.0 4.1 -1 ------- null}
r -t 0.266 -s 0 -d 4 -p cbr -e 1000 -c 2 -i 47 -a 2 -x {0.0 4.1 19 ------- null}
+ -t 0.268 -s 0 -d 4 -p cbr -e 1000 -c 2 -i 49 -a 2 -x {0.0 4.1 21 ------- null}
- -t 0.268 -s 0 -d 4 -p cbr -e 1000 -c 2 -i 49 -a 2 -x {0.0 4.1 21 ------- null}
h -t 0.268 -s 0 -d 4 -p cbr -e 1000 -c 2 -i 49 -a 2 -x {0.0 4.1 -1 ------- null}
r -t 0.274 -s 0 -d 4 -p cbr -e 1000 -c 2 -i 48 -a 2 -x {0.0 4.1 20 ------- null}
+ -t 0.276 -s 0 -d 4 -p cbr -e 1000 -c 2 -i 50 -a 2 -x {0.0 4.1 22 ------- null}
- -t 0.276 -s 0 -d 4 -p cbr -e 1000 -c 2 -i 50 -a 2 -x {0.0 4.1 22 ------- null}
h -t 0.276 -s 0 -d 4 -p cbr -e 1000 -c 2 -i 50 -a 2 -x {0.0 4.1 -1 ------- null}
+ -t 0.277940357931862 -s 1 -d 0 -p rtProtoDV -e 5 -c 0 -i 51 -a 0 -x {1.1 0.2 -1 ------- null}
- -t 0.277940357931862 -s 1 -d 0 -p rtProtoDV -e 5 -c 0 -i 51 -a 0 -x {1.1 0.2 -1 ------- null}
h -t 0.277940357931862 -s 1 -d 0 -p rtProtoDV -e 5 -c 0 -i 51 -a 0 -x {1.1 0.2 -1 ------- null}
+ -t 0.277940357931862 -s 1 -d 2 -p rtProtoDV -e 5 -c 0 -i 52 -a 0 -x {1.1 2.2 -1 ------- null}
- -t 0.277940357931862 -s 1 -d 2 -p rtProtoDV -e 5 -c 0 -i 52 -a 0 -x {1.1 2.2 -1 ------- null}
h -t 0.277940357931862 -s 1 -d 2 -p rtProtoDV -e 5 -c 0 -i 52 -a 0 -x {1.1 2.2 -1 ------- null}
r -t 0.282 -s 0 -d 4 -p cbr -e 1000 -c 2 -i 49 -a 2 -x {0.0 4.1 21 ------- null}
+ -t 0.284 -s 0 -d 4 -p cbr -e 1000 -c 2 -i 53 -a 2 -x {0.0 4.1 23 ------- null}
- -t 0.284 -s 0 -d 4 -p cbr -e 1000 -c 2 -i 53 -a 2 -x {0.0 4.1 23 ------- null}
h -t 0.284 -s 0 -d 4 -p cbr -e 1000 -c 2 -i 53 -a 2 -x {0.0 4.1 -1 ------- null}
r -t 0.287960357931862 -s 1 -d 0 -p rtProtoDV -e 5 -c 0 -i 51 -a 0 -x {1.1 0.2 -1 ------- null}
r -t 0.287960357931862 -s 1 -d 2 -p rtProtoDV -e 5 -c 0 -i 52 -a 0 -x {1.1 2.2 -1 ------- null}
r -t 0.29 -s 0 -d 4 -p cbr -e 1000 -c 2 -i 50 -a 2 -x {0.0 4.1 22 ------- null}
+ -t 0.292 -s 0 -d 4 -p cbr -e 1000 -c 2 -i 54 -a 2 -x {0.0 4.1 24 ------- null}
- -t 0.292 -s 0 -d 4 -p cbr -e 1000 -c 2 -i 54 -a 2 -x {0.0 4.1 24 ------- null}
h -t 0.292 -s 0 -d 4 -p cbr -e 1000 -c 2 -i 54 -a 2 -x {0.0 4.1 -1 ------- null}
r -t 0.298 -s 0 -d 4 -p cbr -e 1000 -c 2 -i 53 -a 2 -x {0.0 4.1 23 ------- null}
+ -t 0.3 -s 0 -d 4 -p cbr -e 1000 -c 2 -i 55 -a 2 -x {0.0 4.1 25 ------- null}
- -t 0.3 -s 0 -d 4 -p cbr -e 1000 -c 2 -i 55 -a 2 -x {0.0 4.1 25 ------- null}
h -t 0.3 -s 0 -d 4 -p cbr -e 1000 -c 2 -i 55 -a 2 -x {0.0 4.1 -1 ------- null}
r -t 0.306 -s 0 -d 4 -p cbr -e 1000 -c 2 -i 54 -a 2 -x {0.0 4.1 24 ------- null}
+ -t 0.308 -s 0 -d 4 -p cbr -e 1000 -c 2 -i 56 -a 2 -x {0.0 4.1 26 ------- null}
- -t 0.308 -s 0 -d 4 -p cbr -e 1000 -c 2 -i 56 -a 2 -x {0.0 4.1 26 ------- null}
h -t 0.308 -s 0 -d 4 -p cbr -e 1000 -c 2 -i 56 -a 2 -x {0.0 4.1 -1 ------- null}
r -t 0.314 -s 0 -d 4 -p cbr -e 1000 -c 2 -i 55 -a 2 -x {0.0 4.1 25 ------- null}
+ -t 0.316 -s 0 -d 4 -p cbr -e 1000 -c 2 -i 57 -a 2 -x {0.0 4.1 27 ------- null}
- -t 0.316 -s 0 -d 4 -p cbr -e 1000 -c 2 -i 57 -a 2 -x {0.0 4.1 27 ------- null}
h -t 0.316 -s 0 -d 4 -p cbr -e 1000 -c 2 -i 57 -a 2 -x {0.0 4.1 -1 ------- null}
r -t 0.322 -s 0 -d 4 -p cbr -e 1000 -c 2 -i 56 -a 2 -x {0.0 4.1 26 ------- null}
+ -t 0.324 -s 0 -d 4 -p cbr -e 1000 -c 2 -i 58 -a 2 -x {0.0 4.1 28 ------- null}
- -t 0.324 -s 0 -d 4 -p cbr -e 1000 -c 2 -i 58 -a 2 -x {0.0 4.1 28 ------- null}
h -t 0.324 -s 0 -d 4 -p cbr -e 1000 -c 2 -i 58 -a 2 -x {0.0 4.1 -1 ------- null}
r -t 0.33 -s 0 -d 4 -p cbr -e 1000 -c 2 -i 57 -a 2 -x {0.0 4.1 27 ------- null}
+ -t 0.332 -s 0 -d 4 -p cbr -e 1000 -c 2 -i 59 -a 2 -x {0.0 4.1 29 ------- null}
- -t 0.332 -s 0 -d 4 -p cbr -e 1000 -c 2 -i 59 -a 2 -x {0.0 4.1 29 ------- null}
h -t 0.332 -s 0 -d 4 -p cbr -e 1000 -c 2 -i 59 -a 2 -x {0.0 4.1 -1 ------- null}
r -t 0.338 -s 0 -d 4 -p cbr -e 1000 -c 2 -i 58 -a 2 -x {0.0 4.1 28 ------- null}
+ -t 0.34 -s 0 -d 4 -p cbr -e 1000 -c 2 -i 60 -a 2 -x {0.0 4.1 30 ------- null}
- -t 0.34 -s 0 -d 4 -p cbr -e 1000 -c 2 -i 60 -a 2 -x {0.0 4.1 30 ------- null}
h -t 0.34 -s 0 -d 4 -p cbr -e 1000 -c 2 -i 60 -a 2 -x {0.0 4.1 -1 ------- null}
r -t 0.346 -s 0 -d 4 -p cbr -e 1000 -c 2 -i 59 -a 2 -x {0.0 4.1 29 ------- null}
+ -t 0.348 -s 0 -d 4 -p cbr -e 1000 -c 2 -i 61 -a 2 -x {0.0 4.1 31 ------- null}
- -t 0.348 -s 0 -d 4 -p cbr -e 1000 -c 2 -i 61 -a 2 -x {0.0 4.1 31 ------- null}
h -t 0.348 -s 0 -d 4 -p cbr -e 1000 -c 2 -i 61 -a 2 -x {0.0 4.1 -1 ------- null}
r -t 0.354 -s 0 -d 4 -p cbr -e 1000 -c 2 -i 60 -a 2 -x {0.0 4.1 30 ------- null}
+ -t 0.356 -s 0 -d 4 -p cbr -e 1000 -c 2 -i 62 -a 2 -x {0.0 4.1 32 ------- null}
- -t 0.356 -s 0 -d 4 -p cbr -e 1000 -c 2 -i 62 -a 2 -x {0.0 4.1 32 ------- null}
h -t 0.356 -s 0 -d 4 -p cbr -e 1000 -c 2 -i 62 -a 2 -x {0.0 4.1 -1 ------- null}
r -t 0.362 -s 0 -d 4 -p cbr -e 1000 -c 2 -i 61 -a 2 -x {0.0 4.1 31 ------- null}
+ -t 0.364 -s 0 -d 4 -p cbr -e 1000 -c 2 -i 63 -a 2 -x {0.0 4.1 33 ------- null}
- -t 0.364 -s 0 -d 4 -p cbr -e 1000 -c 2 -i 63 -a 2 -x {0.0 4.1 33 ------- null}
h -t 0.364 -s 0 -d 4 -p cbr -e 1000 -c 2 -i 63 -a 2 -x {0.0 4.1 -1 ------- null}
r -t 0.37 -s 0 -d 4 -p cbr -e 1000 -c 2 -i 62 -a 2 -x {0.0 4.1 32 ------- null}
+ -t 0.372 -s 0 -d 4 -p cbr -e 1000 -c 2 -i 64 -a 2 -x {0.0 4.1 34 ------- null}
- -t 0.372 -s 0 -d 4 -p cbr -e 1000 -c 2 -i 64 -a 2 -x {0.0 4.1 34 ------- null}
h -t 0.372 -s 0 -d 4 -p cbr -e 1000 -c 2 -i 64 -a 2 -x {0.0 4.1 -1 ------- null}
r -t 0.378 -s 0 -d 4 -p cbr -e 1000 -c 2 -i 63 -a 2 -x {0.0 4.1 33 ------- null}
+ -t 0.38 -s 0 -d 4 -p cbr -e 1000 -c 2 -i 65 -a 2 -x {0.0 4.1 35 ------- null}
- -t 0.38 -s 0 -d 4 -p cbr -e 1000 -c 2 -i 65 -a 2 -x {0.0 4.1 35 ------- null}
h -t 0.38 -s 0 -d 4 -p cbr -e 1000 -c 2 -i 65 -a 2 -x {0.0 4.1 -1 ------- null}
r -t 0.386 -s 0 -d 4 -p cbr -e 1000 -c 2 -i 64 -a 2 -x {0.0 4.1 34 ------- null}
+ -t 0.388 -s 0 -d 4 -p cbr -e 1000 -c 2 -i 66 -a 2 -x {0.0 4.1 36 ------- null}
- -t 0.388 -s 0 -d 4 -p cbr -e 1000 -c 2 -i 66 -a 2 -x {0.0 4.1 36 ------- null}
h -t 0.388 -s 0 -d 4 -p cbr -e 1000 -c 2 -i 66 -a 2 -x {0.0 4.1 -1 ------- null}
r -t 0.394 -s 0 -d 4 -p cbr -e 1000 -c 2 -i 65 -a 2 -x {0.0 4.1 35 ------- null}
+ -t 0.396 -s 0 -d 4 -p cbr -e 1000 -c 2 -i 67 -a 2 -x {0.0 4.1 37 ------- null}
- -t 0.396 -s 0 -d 4 -p cbr -e 1000 -c 2 -i 67 -a 2 -x {0.0 4.1 37 ------- null}
h -t 0.396 -s 0 -d 4 -p cbr -e 1000 -c 2 -i 67 -a 2 -x {0.0 4.1 -1 ------- null}
r -t 0.402 -s 0 -d 4 -p cbr -e 1000 -c 2 -i 66 -a 2 -x {0.0 4.1 36 ------- null}
+ -t 0.404 -s 0 -d 4 -p cbr -e 1000 -c 2 -i 68 -a 2 -x {0.0 4.1 38 ------- null}
- -t 0.404 -s 0 -d 4 -p cbr -e 1000 -c 2 -i 68 -a 2 -x {0.0 4.1 38 ------- null}
h -t 0.404 -s 0 -d 4 -p cbr -e 1000 -c 2 -i 68 -a 2 -x {0.0 4.1 -1 ------- null}
r -t 0.41 -s 0 -d 4 -p cbr -e 1000 -c 2 -i 67 -a 2 -x {0.0 4.1 37 ------- null}
+ -t 0.412 -s 0 -d 4 -p cbr -e 1000 -c 2 -i 69 -a 2 -x {0.0 4.1 39 ------- null}
- -t 0.412 -s 0 -d 4 -p cbr -e 1000 -c 2 -i 69 -a 2 -x {0.0 4.1 39 ------- null}
h -t 0.412 -s 0 -d 4 -p cbr -e 1000 -c 2 -i 69 -a 2 -x {0.0 4.1 -1 ------- null}
r -t 0.418 -s 0 -d 4 -p cbr -e 1000 -c 2 -i 68 -a 2 -x {0.0 4.1 38 ------- null}
+ -t 0.42 -s 0 -d 4 -p cbr -e 1000 -c 2 -i 70 -a 2 -x {0.0 4.1 40 ------- null}
- -t 0.42 -s 0 -d 4 -p cbr -e 1000 -c 2 -i 70 -a 2 -x {0.0 4.1 40 ------- null}
h -t 0.42 -s 0 -d 4 -p cbr -e 1000 -c 2 -i 70 -a 2 -x {0.0 4.1 -1 ------- null}
r -t 0.426 -s 0 -d 4 -p cbr -e 1000 -c 2 -i 69 -a 2 -x {0.0 4.1 39 ------- null}
+ -t 0.428 -s 0 -d 4 -p cbr -e 1000 -c 2 -i 71 -a 2 -x {0.0 4.1 41 ------- null}
- -t 0.428 -s 0 -d 4 -p cbr -e 1000 -c 2 -i 71 -a 2 -x {0.0 4.1 41 ------- null}
h -t 0.428 -s 0 -d 4 -p cbr -e 1000 -c 2 -i 71 -a 2 -x {0.0 4.1 -1 ------- null}
r -t 0.434 -s 0 -d 4 -p cbr -e 1000 -c 2 -i 70 -a 2 -x {0.0 4.1 40 ------- null}
+ -t 0.436 -s 0 -d 4 -p cbr -e 1000 -c 2 -i 72 -a 2 -x {0.0 4.1 42 ------- null}
- -t 0.436 -s 0 -d 4 -p cbr -e 1000 -c 2 -i 72 -a 2 -x {0.0 4.1 42 ------- null}
h -t 0.436 -s 0 -d 4 -p cbr -e 1000 -c 2 -i 72 -a 2 -x {0.0 4.1 -1 ------- null}
r -t 0.442 -s 0 -d 4 -p cbr -e 1000 -c 2 -i 71 -a 2 -x {0.0 4.1 41 ------- null}
+ -t 0.444 -s 0 -d 4 -p cbr -e 1000 -c 2 -i 73 -a 2 -x {0.0 4.1 43 ------- null}
- -t 0.444 -s 0 -d 4 -p cbr -e 1000 -c 2 -i 73 -a 2 -x {0.0 4.1 43 ------- null}
h -t 0.444 -s 0 -d 4 -p cbr -e 1000 -c 2 -i 73 -a 2 -x {0.0 4.1 -1 ------- null}
r -t 0.45 -s 0 -d 4 -p cbr -e 1000 -c 2 -i 72 -a 2 -x {0.0 4.1 42 ------- null}
+ -t 0.452 -s 0 -d 4 -p cbr -e 1000 -c 2 -i 74 -a 2 -x {0.0 4.1 44 ------- null}
- -t 0.452 -s 0 -d 4 -p cbr -e 1000 -c 2 -i 74 -a 2 -x {0.0 4.1 44 ------- null}
h -t 0.452 -s 0 -d 4 -p cbr -e 1000 -c 2 -i 74 -a 2 -x {0.0 4.1 -1 ------- null}
r -t 0.458 -s 0 -d 4 -p cbr -e 1000 -c 2 -i 73 -a 2 -x {0.0 4.1 43 ------- null}
+ -t 0.46 -s 0 -d 4 -p cbr -e 1000 -c 2 -i 75 -a 2 -x {0.0 4.1 45 ------- null}
- -t 0.46 -s 0 -d 4 -p cbr -e 1000 -c 2 -i 75 -a 2 -x {0.0 4.1 45 ------- null}
h -t 0.46 -s 0 -d 4 -p cbr -e 1000 -c 2 -i 75 -a 2 -x {0.0 4.1 -1 ------- null}
r -t 0.466 -s 0 -d 4 -p cbr -e 1000 -c 2 -i 74 -a 2 -x {0.0 4.1 44 ------- null}
+ -t 0.468 -s 0 -d 4 -p cbr -e 1000 -c 2 -i 76 -a 2 -x {0.0 4.1 46 ------- null}
- -t 0.468 -s 0 -d 4 -p cbr -e 1000 -c 2 -i 76 -a 2 -x {0.0 4.1 46 ------- null}
h -t 0.468 -s 0 -d 4 -p cbr -e 1000 -c 2 -i 76 -a 2 -x {0.0 4.1 -1 ------- null}
r -t 0.474 -s 0 -d 4 -p cbr -e 1000 -c 2 -i 75 -a 2 -x {0.0 4.1 45 ------- null}
+ -t 0.476 -s 0 -d 4 -p cbr -e 1000 -c 2 -i 77 -a 2 -x {0.0 4.1 47 ------- null}
- -t 0.476 -s 0 -d 4 -p cbr -e 1000 -c 2 -i 77 -a 2 -x {0.0 4.1 47 ------- null}
h -t 0.476 -s 0 -d 4 -p cbr -e 1000 -c 2 -i 77 -a 2 -x {0.0 4.1 -1 ------- null}
r -t 0.482 -s 0 -d 4 -p cbr -e 1000 -c 2 -i 76 -a 2 -x {0.0 4.1 46 ------- null}
+ -t 0.484 -s 0 -d 4 -p cbr -e 1000 -c 2 -i 78 -a 2 -x {0.0 4.1 48 ------- null}
- -t 0.484 -s 0 -d 4 -p cbr -e 1000 -c 2 -i 78 -a 2 -x {0.0 4.1 48 ------- null}
h -t 0.484 -s 0 -d 4 -p cbr -e 1000 -c 2 -i 78 -a 2 -x {0.0 4.1 -1 ------- null}
r -t 0.49 -s 0 -d 4 -p cbr -e 1000 -c 2 -i 77 -a 2 -x {0.0 4.1 47 ------- null}
+ -t 0.492 -s 0 -d 4 -p cbr -e 1000 -c 2 -i 79 -a 2 -x {0.0 4.1 49 ------- null}
- -t 0.492 -s 0 -d 4 -p cbr -e 1000 -c 2 -i 79 -a 2 -x {0.0 4.1 49 ------- null}
h -t 0.492 -s 0 -d 4 -p cbr -e 1000 -c 2 -i 79 -a 2 -x {0.0 4.1 -1 ------- null}
r -t 0.498 -s 0 -d 4 -p cbr -e 1000 -c 2 -i 78 -a 2 -x {0.0 4.1 48 ------- null}
+ -t 0.5 -s 0 -d 4 -p cbr -e 1000 -c 2 -i 80 -a 2 -x {0.0 4.1 50 ------- null}
- -t 0.5 -s 0 -d 4 -p cbr -e 1000 -c 2 -i 80 -a 2 -x {0.0 4.1 50 ------- null}
h -t 0.5 -s 0 -d 4 -p cbr -e 1000 -c 2 -i 80 -a 2 -x {0.0 4.1 -1 ------- null}
r -t 0.506 -s 0 -d 4 -p cbr -e 1000 -c 2 -i 79 -a 2 -x {0.0 4.1 49 ------- null}
+ -t 0.508 -s 0 -d 4 -p cbr -e 1000 -c 2 -i 81 -a 2 -x {0.0 4.1 51 ------- null}
- -t 0.508 -s 0 -d 4 -p cbr -e 1000 -c 2 -i 81 -a 2 -x {0.0 4.1 51 ------- null}
h -t 0.508 -s 0 -d 4 -p cbr -e 1000 -c 2 -i 81 -a 2 -x {0.0 4.1 -1 ------- null}
r -t 0.514 -s 0 -d 4 -p cbr -e 1000 -c 2 -i 80 -a 2 -x {0.0 4.1 50 ------- null}
+ -t 0.516 -s 0 -d 4 -p cbr -e 1000 -c 2 -i 82 -a 2 -x {0.0 4.1 52 ------- null}
- -t 0.516 -s 0 -d 4 -p cbr -e 1000 -c 2 -i 82 -a 2 -x {0.0 4.1 52 ------- null}
h -t 0.516 -s 0 -d 4 -p cbr -e 1000 -c 2 -i 82 -a 2 -x {0.0 4.1 -1 ------- null}
r -t 0.522 -s 0 -d 4 -p cbr -e 1000 -c 2 -i 81 -a 2 -x {0.0 4.1 51 ------- null}
+ -t 0.524 -s 0 -d 4 -p cbr -e 1000 -c 2 -i 83 -a 2 -x {0.0 4.1 53 ------- null}
- -t 0.524 -s 0 -d 4 -p cbr -e 1000 -c 2 -i 83 -a 2 -x {0.0 4.1 53 ------- null}
h -t 0.524 -s 0 -d 4 -p cbr -e 1000 -c 2 -i 83 -a 2 -x {0.0 4.1 -1 ------- null}
r -t 0.53 -s 0 -d 4 -p cbr -e 1000 -c 2 -i 82 -a 2 -x {0.0 4.1 52 ------- null}
+ -t 0.532 -s 0 -d 4 -p cbr -e 1000 -c 2 -i 84 -a 2 -x {0.0 4.1 54 ------- null}
- -t 0.532 -s 0 -d 4 -p cbr -e 1000 -c 2 -i 84 -a 2 -x {0.0 4.1 54 ------- null}
h -t 0.532 -s 0 -d 4 -p cbr -e 1000 -c 2 -i 84 -a 2 -x {0.0 4.1 -1 ------- null}
r -t 0.538 -s 0 -d 4 -p cbr -e 1000 -c 2 -i 83 -a 2 -x {0.0 4.1 53 ------- null}